Generic title
21742
    1CPH     CC    1   5.042   3.234   3.584  0.2438 -0.5908  0.1915
    1CPH    HC1    2   5.121   3.239   3.509  0.4210  1.7134  0.4638
    1CPH    HC2    3   5.061   3.264   3.686 -1.2853  0.5680  0.1814
    2MNF      O    4   4.555   3.481   3.413  0.5817  0.2059  0.3804
    2MNF      C    5   4.623   3.439   3.508 -0.5950 -0.5716 -0.2193
    2MNF     C1    6   4.604   3.308   3.586  0.5877  0.5900 -0.4573
    2MNF      H    7   4.512   3.303   3.646  0.8287 -0.7792 -0.1777
    2MNF     C2    8   4.726   3.304   3.679  0.2119 -0.6152  0.0006
    2MNF     C3    9   4.805   3.173   3.646  0.0113 -0.0057  0.4550
    2MNF     C4   10   4.918   3.195   3.551 -1.0183  0.5509  0.6660
    2MNF     C6   11   4.700   3.090   3.579 -0.9613  0.8696  0.0251
    2MNF     C7   12   4.614   3.188   3.494  0.3486  0.2378 -0.1489
    2MNF     C8   13   4.480   3.143   3.447 -0.2470  1.1532 -0.3973
    2MNF     H1   14   4.692   3.299   3.783  2.0273  0.5702  0.6991
    2MNF      N   15   4.730   3.507   3.562  0.3468 -0.7574 -0.3283
    2MNF    C10   16   4.753   3.658   3.544 -0.6574  0.8686  0.3052
    2MNF    C11   17   4.872   3.703   3.459  0.5023 -0.0362 -0.2804
    2MNF    C12   18   4.867   3.654   3.313  0.6839 -0.3679 -0.3033
    2MNF    C13   19   4.901   3.497   3.298 -0.1580  0.7903 -0.7671
    2MNF     O1   20   4.914   3.474   3.157 -0.2535  0.1882  0.4210
    2MNF    C14   21   4.893   3.342   3.108  0.7830  0.6813  0.5425
    2MNF    C15   22   5.028   3.263   3.075  0.3698 -0.4145 -0.2968
    2MNF     O2   23   5.078   3.218   3.202  0.0118  0.3873  0.3066
    2MNF    C16   24   4.985   3.129   3.001  0.1733 -0.0993  0.0511
    2MNF    C17   25   5.108   3.048   2.955 -0.0770 -0.1476 -0.4689
    2MNF     O3   26   5.192   3.129   2.871 -0.3037 -0.4434 -0.1345
    2MNF     O4   27   4.901   3.158   2.885 -0.5615  0.2956  0.0028
    2MNF    C18   28   4.773   3.218   2.911  0.2360  0.1712  0.6189
    2MNF     O5   29   4.706   3.234   2.788  0.6349 -0.2377 -0.0513
    2MNF    C19   30   4.798   3.354   2.989 -0.1555 -0.6025 -0.1781
    2MNF     O6   31   4.673   3.391   3.045 -0.5312 -0.8438 -0.3291
    2MNF    C20   32   4.796   3.441   3.663  0.5133 -0.0124  0.0568
    2MNF     O7   33   4.876   3.484   3.741 -0.2268 -0.6583  0.3660
    2MNF     H2   34   4.836   3.123   3.738 -1.0837 -0.3568  0.6483
    2MNF     H3   35   4.905   3.153   3.451 -0.6643  0.8051  0.5125
    2MNF     H6   36   4.630   3.048   3.652 -1.2132  2.1754  0.5566
    2MNF     H7   37   4.745   3.010   3.519 -2.4058 -0.1546  0.2496
    2MNF     H8   38   4.666   3.223   3.403 -3.3739  0.2712 -2.4906
    2MNF     H9   39   4.426   3.224   3.398 -0.8000 -0.0018 -1.7332
    2MNF    H12   40   4.767   3.706   3.641 -0.9274 -0.3043  0.9487
    2MNF    H13   41   4.658   3.683   3.496 -0.7578 -0.9383 -0.5338
    2MNF    H14   42   4.867   3.812   3.464  2.2424  0.0368  0.7008
    2MNF    H15   43   4.970   3.665   3.491  1.3616  1.6514 -0.7604
    2MNF    H16   44   4.765   3.670   3.277 -0.1171 -1.7226  1.2478
    2MNF    H17   45   4.934   3.717   3.253  0.8920  0.5217  0.8147
    2MNF    H18   46   4.815   3.443   3.339  0.0123 -0.1665 -1.6244
    2MNF    H19   47   4.992   3.462   3.349 -0.2854  0.5905 -0.6806
    2MNF    H20   48   4.845   3.280   3.184  0.3416 -0.3380 -0.5363
    2MNF    H21   49   5.101   3.322   3.019 -0.8671  1.6595  0.1735
    2MNF    H22   50   5.155   3.270   3.230  1.4960 -0.4139 -2.0107
    2MNF    H23   51   4.927   3.073   3.075  0.5532 -0.9086 -0.2626
    2MNF    H24   52   5.162   3.009   3.042 -1.1799 -1.9163 -0.5156
    2MNF    H25   53   5.083   2.954   2.904 -2.4100 -0.8046  1.6743
    2MNF    H26   54   5.148   3.133   2.784  0.3713 -0.0287 -0.4665
    2MNF    H27   55   4.720   3.141   2.969 -0.4177 -0.4185 -0.7147
    2MNF    H28   56   4.768   3.258   2.717 -1.1625  1.8157 -1.0352
    2MNF    H29   57   4.830   3.433   2.920 -0.7724  0.3170  0.5809
    2MNF    H30   58   4.688   3.475   3.091  3.1996 -1.1921 -0.6440
    3MON      O   59   4.007   2.873   3.567 -0.0665 -0.2733  0.2136
    3MON      C   60   4.126   2.886   3.605  0.2311  0.2668  0.2836
    3MON     C1   61   4.241   2.784   3.583  0.3164 -0.0441  0.0647
    3MON      H   62   4.229   2.698   3.650  1.1007 -0.5224 -0.4000
    3MON     C2   63   4.362   2.861   3.624 -0.2813 -0.5490 -0.4665
    3MON     C3   64   4.449   2.893   3.501 -0.2281 -0.2616 -0.4610
    3MON     C4   65   4.417   3.029   3.442 -0.1760 -0.6000  0.3034
    3MON     C6   66   4.408   2.788   3.401 -0.6837  0.0691 -0.1557
    3MON     C7   67   4.261   2.751   3.431 -0.1954 -0.2663  0.8736
    3MON     C8   68   4.216   2.609   3.397  0.0900  0.0190  0.4729
    3MON     H1   69   4.425   2.797   3.687  0.9061  1.3004  0.3159
    3MON      N   70   4.180   2.992   3.676  0.4486  0.1456  0.1686
    3MON    C10   71   4.086   3.077   3.752  0.2661 -0.1126 -0.1488
    3MON    C11   72   4.037   3.200   3.667 -0.4274  0.0030 -0.4765
    3MON    C12   73   4.157   3.302   3.643  1.0163 -0.4595 -0.3801
    3MON    C13   74   4.179   3.409   3.756 -0.3300 -0.0076 -0.1584
    3MON     O1   75   4.050   3.457   3.811  0.1537  0.0383 -0.0836
    3MON    C14   76   4.048   3.548   3.913 -0.1494 -0.2453  0.2328
    3MON    C15   77   4.098   3.480   4.044  0.4085 -1.3368  0.2138
    3MON     O2   78   4.236   3.487   4.039  0.0941  0.3929 -0.2682
    3MON    C16   79   4.049   3.553   4.172 -0.1511 -0.0624  0.0846
    3MON    C17   80   4.048   3.454   4.298 -0.1313  0.2538 -0.4805
    3MON     O3   81   4.037   3.529   4.421  0.6107 -0.2100  0.4496
    3MON     O4   82   3.912   3.605   4.146 -0.5955 -0.1426  0.2537
    3MON    C18   83   3.901   3.694   4.037 -0.1810  0.6824 -0.1871
    3MON     O5   84   3.773   3.747   4.046  0.0313  0.3552  0.2254
    3MON    C19   85   3.906   3.611   3.909  0.5738  1.0007 -0.2820
    3MON     O6   86   3.893   3.690   3.791  0.0970  0.0391 -0.0153
    3MON    C20   87   4.312   2.980   3.711 -0.2164 -0.2937 -0.3980
    3MON     O7   88   4.378   3.053   3.782 -0.1247 -0.6467 -0.6590
    3MON     H2   89   4.556   2.888   3.524 -0.1500  2.5970  0.1491
    3MON     H3   90   4.325   3.039   3.385 -0.3710 -1.6240  0.4143
    3MON     H6   91   4.474   2.704   3.425  1.7168  1.3061 -2.0092
    3MON     H7   92   4.429   2.807   3.295  1.4854 -0.1429  0.1948
    3MON     H8   93   4.214   2.829   3.370  2.3097 -0.1866 -1.1110
    3MON     H9   94   4.164   2.563   3.481  0.4329 -0.8849  0.2118
    3MON    H12   95   4.139   3.116   3.841 -2.4205 -0.1307  1.5559
    3MON    H13   96   4.003   3.021   3.796  1.3059  0.1574  2.3330
    3MON    H14   97   3.997   3.168   3.570  1.4369  0.9840 -1.6268
    3MON    H15   98   3.956   3.256   3.715 -0.3749  0.0399 -0.4310
    3MON    H16   99   4.254   3.254   3.625  0.6958 -1.1063 -0.4066
    3MON    H17  100   4.135   3.374   3.564 -1.3081  0.0220  0.6023
    3MON    H18  101   4.238   3.491   3.715 -2.1191  0.9087 -0.9934
    3MON    H19  102   4.233   3.355   3.835  0.2781  2.0033  0.8735
    3MON    H20  103   4.121   3.624   3.883  0.3284 -1.1446 -0.9747
    3MON    H21  104   4.061   3.377   4.033  1.5499 -1.5747 -1.8537
    3MON    H22  105   4.271   3.412   3.987 -0.3686 -1.1142  1.5053
    3MON    H23  106   4.113   3.637   4.200  1.8640 -0.8278 -1.9666
    3MON    H24  107   3.959   3.389   4.291  0.9314 -1.2215 -0.7453
    3MON    H25  108   4.135   3.389   4.310 -1.3032 -1.0851  1.2484
    3MON    H26  109   4.060   3.621   4.398 -0.6457  0.2174  0.8324
    3MON    H27  110   3.979   3.770   4.047  0.8821 -0.4270  0.2231
    3MON    H28  111   3.786   3.811   4.118 -0.6099  0.9616 -0.1793
    3MON    H29  112   3.824   3.538   3.913 -2.3529  4.0329 -0.6595
    3MON    H30  113   3.802   3.724   3.792 -0.0404 -0.2447 -1.1510
    4MON      O  114   4.687   2.309   2.997  0.3116  0.5292  0.1417
    4MON      C  115   4.611   2.367   3.077  0.0434  0.2347 -0.2472
    4MON     C1  116   4.532   2.495   3.043  0.1513 -0.1888 -0.3155
    4MON      H  117   4.603   2.568   3.000 -0.5732  0.6999 -0.0212
    4MON     C2  118   4.480   2.545   3.189  0.0107 -0.1981  0.3785
    4MON     C3  119   4.326   2.576   3.172 -0.1258 -0.3250 -0.5736
    4MON     C4  120   4.241   2.538   3.291 -0.1689 -0.6062 -0.5678
    4MON     C6  121   4.291   2.497   3.042 -0.2292  0.3031  0.6058
    4MON     C7  122   4.414   2.469   2.949 -0.2531  0.5053  0.1111
    4MON     C8  123   4.432   2.545   2.815 -0.5040 -0.4566  0.5235
    4MON     H1  124   4.542   2.629   3.223  1.8478 -1.5494  0.5120
    4MON      N  125   4.595   2.336   3.211 -0.1427  0.5883  0.1366
    4MON    C10  126   4.689   2.246   3.290  0.6443  0.7596  0.3473
    4MON    C11  127   4.646   2.093   3.290  0.1579 -0.1051 -0.5931
    4MON    C12  128   4.500   2.070   3.333 -0.8950  0.1465  0.1810
    4MON    C13  129   4.449   1.928   3.320 -0.7083  0.4575 -0.0369
    4MON     O1  130   4.493   1.871   3.448 -0.0612  0.9857  0.2832
    4MON    C14  131   4.478   1.728   3.468  0.2765 -0.1808 -0.2004
    4MON    C15  132   4.373   1.712   3.581 -0.0389 -0.4000  0.1738
    4MON     O2  133   4.246   1.735   3.517 -0.0794  0.0878 -0.9061
    4MON    C16  134   4.374   1.578   3.656  0.3907  0.1512 -0.0086
    4MON    C17  135   4.302   1.574   3.792  0.6833 -0.0032  0.2567
    4MON     O3  136   4.316   1.446   3.845 -0.1653 -0.2429 -0.1682
    4MON     O4  137   4.511   1.540   3.686  0.2009  0.8046 -0.3540
    4MON    C18  138   4.594   1.528   3.571 -0.0366  0.0531 -0.1742
    4MON     O5  139   4.710   1.472   3.628  0.0144 -0.4217  0.0930
    4MON    C19  140   4.617   1.674   3.518 -0.3137  0.6181 -0.0161
    4MON     O6  141   4.718   1.676   3.417 -0.2745 -0.2630  0.5786
    4MON    C20  142   4.515   2.426   3.284 -1.0925 -0.3533  0.3861
    4MON     O7  143   4.486   2.415   3.401 -0.6130  0.3773 -0.4154
    4MON     H2  144   4.308   2.683   3.160 -1.8238 -0.3615  1.2237
    4MON     H3  145   4.213   2.433   3.282 -0.8110 -0.5534  0.5693
    4MON     H6  146   4.206   2.541   2.987 -0.6250  0.9197  1.6782
    4MON     H7  147   4.261   2.398   3.079  0.8056 -0.8256 -1.4196
    4MON     H8  148   4.410   2.361   2.933  3.6088  0.4681 -1.7075
    4MON     H9  149   4.481   2.485   2.738  3.1833  1.2936  1.3450
    4MON    H12  150   4.679   2.269   3.397 -0.2752 -2.8262  1.1625
    4MON    H13  151   4.792   2.262   3.254  0.9644 -4.6526 -2.1757
    4MON    H14  152   4.662   2.048   3.191 -0.8818  0.2544 -0.9458
    4MON    H15  153   4.707   2.036   3.361 -2.7579 -0.2956  2.0147
    4MON    H16  154   4.489   2.103   3.437 -0.6962 -0.0593  0.2705
    4MON    H17  155   4.427   2.129   3.278 -0.0770  0.8282 -0.2029
    4MON    H18  156   4.486   1.870   3.234 -0.3363 -1.7677  1.5162
    4MON    H19  157   4.341   1.914   3.305 -0.8286  0.1040  1.0906
    4MON    H20  158   4.442   1.683   3.374 -2.9367  1.9919 -0.1533
    4MON    H21  159   4.394   1.790   3.654 -0.8543 -1.2726  1.3846
    4MON    H22  160   4.241   1.828   3.491 -2.4157 -0.0789 -1.2605
    4MON    H23  161   4.325   1.506   3.590  1.0612  0.2654 -0.6476
    4MON    H24  162   4.343   1.649   3.860  2.4157 -1.5930  1.0163
    4MON    H25  163   4.194   1.596   3.788  0.3639 -1.4910  0.0539
    4MON    H26  164   4.412   1.434   3.840  0.2393  2.2979  0.0148
    4MON    H27  165   4.562   1.464   3.488 -1.0706 -0.3109  0.4853
    4MON    H28  166   4.682   1.401   3.688  0.0912 -0.6539 -0.1444
    4MON    H29  167   4.655   1.734   3.602  1.5360  1.8533 -1.6484
    4MON    H30  168   4.684   1.654   3.329  1.3268  0.6239 -0.3144
    5MON      O  169   4.533   3.050   2.560 -0.6097 -0.4192  0.1547
    5MON      C  170   4.515   3.013   2.674 -0.5251  0.3562  0.9538
    5MON     C1  171   4.379   2.999   2.752 -0.2963 -0.0677  0.4628
    5MON      H  172   4.332   3.090   2.792 -0.4175 -0.1995  0.6205
    5MON     C2  173   4.404   2.899   2.870  0.2716 -0.3763 -0.6089
    5MON     C3  174   4.316   2.770   2.838 -0.1792 -0.0867  0.1539
    5MON     C4  175   4.390   2.657   2.770  0.6808 -1.2175 -0.1920
    5MON     C6  176   4.206   2.820   2.753  0.1339  0.7308 -0.3550
    5MON     C7  177   4.278   2.925   2.660 -0.3029 -0.2797 -0.6725
    5MON     C8  178   4.186   3.015   2.582  0.0674  0.2668  0.4000
    5MON     H1  179   4.364   2.949   2.960 -0.4962  1.2804 -1.8241
    5MON      N  180   4.612   2.943   2.750  0.3212 -0.5345  0.0773
    5MON    C10  181   4.748   2.933   2.699 -0.0296  0.2331 -0.5239
    5MON    C11  182   4.766   2.798   2.614 -0.4998 -0.1900 -0.2225
    5MON    C12  183   4.744   2.663   2.682  0.6234  0.2935  0.5767
    5MON    C13  184   4.855   2.604   2.769 -0.2983 -0.2220 -0.6889
    5MON     O1  185   4.894   2.704   2.872  0.2199  0.0236  0.8854
    5MON    C14  186   4.957   2.646   2.989 -0.0852 -0.0170  0.1704
    5MON    C15  187   4.926   2.744   3.103  0.3242 -0.0209  0.2239
    5MON     O2  188   4.799   2.711   3.158  0.1505 -0.0924 -0.1702
    5MON    C16  189   5.029   2.749   3.213  0.1102  0.2257 -0.3043
    5MON    C17  190   5.009   2.865   3.313  0.2270 -0.1260  0.1263
    5MON     O3  191   5.060   2.829   3.442  0.4673 -0.0687  0.4917
    5MON     O4  192   5.160   2.764   3.156 -0.2246 -0.0801 -0.3430
    5MON    C18  193   5.208   2.660   3.074  0.2000 -0.4255  0.0151
    5MON     O5  194   5.327   2.717   3.017 -0.2726 -0.2360 -0.2450
    5MON    C19  195   5.111   2.635   2.951 -0.3101  0.3902 -0.2204
    5MON     O6  196   5.128   2.509   2.893  0.1282 -0.1274 -0.1710
    5MON    C20  197   4.560   2.886   2.869  0.0669  0.6394  0.5411
    5MON     O7  198   4.629   2.846   2.962  0.0623  0.2719  0.2783
    5MON     H2  199   4.271   2.738   2.933 -2.3096  2.0805 -0.0265
    5MON     H3  200   4.412   2.680   2.666 -0.8302  0.8805 -0.1316
    5MON     H6  201   4.135   2.873   2.817  1.7931  1.4096  0.9800
    5MON     H7  202   4.153   2.739   2.700  0.7532 -1.1496  1.7290
    5MON     H8  203   4.338   2.866   2.590  1.2263 -0.0869  0.4373
    5MON     H9  204   4.177   2.990   2.477 -1.4283 -0.6868  0.7151
    5MON    H12  205   4.820   2.940   2.782 -0.8589  0.8865  0.1526
    5MON    H13  206   4.767   3.022   2.637 -1.4331 -1.1498 -3.1026
    5MON    H14  207   4.701   2.811   2.527 -1.5826  1.1482  0.7343
    5MON    H15  208   4.866   2.795   2.570 -0.3114  0.2883  0.1678
    5MON    H16  209   4.648   2.665   2.735 -0.1222  1.7689 -0.7396
    5MON    H17  210   4.724   2.587   2.605  0.4440  0.2938  0.6230
    5MON    H18  211   4.946   2.588   2.709  0.4457  0.2443  0.2734
    5MON    H19  212   4.815   2.510   2.809 -1.5401  0.8070  0.5868
    5MON    H20  213   4.927   2.543   3.016  1.3231 -1.0022 -1.7895
    5MON    H21  214   4.929   2.844   3.056 -1.9010  0.3413  0.7195
    5MON    H22  215   4.733   2.756   3.103 -1.6925 -0.7003  1.4403
    5MON    H23  216   5.033   2.652   3.265  2.6647  2.0049  3.2210
    5MON    H24  217   5.068   2.951   3.279 -0.5245  0.7530  0.9740
    5MON    H25  218   4.902   2.890   3.324  0.6211  0.6194  3.2575
    5MON    H26  219   5.151   2.796   3.443  0.9889  1.2685  2.2897
    5MON    H27  220   5.219   2.570   3.136  3.4874  0.8230  1.5052
    5MON    H28  221   5.357   2.772   3.092 -0.5323 -2.1737  1.3624
    5MON    H29  222   5.127   2.713   2.875 -1.1924 -1.3311 -2.2614
    5MON    H30  223   5.206   2.523   2.838  1.1609  3.8420  1.9256
    6MON      O  224   3.934   3.511   2.546 -0.1280 -0.1152  0.3182
    6MON      C  225   4.005   3.446   2.620  0.0488  0.2219 -0.6063
    6MON     C1  226   3.972   3.375   2.750  0.0247 -0.5226  0.0266
    6MON      H  227   3.961   3.444   2.834 -0.4962 -1.4277  0.7179
    6MON     C2  228   4.109   3.305   2.790  0.2356  0.0259  0.3960
    6MON     C3  229   4.074   3.162   2.774  0.9141  0.2607  0.6113
    6MON     C4  230   4.100   3.110   2.630 -0.0920 -0.5333  0.4044
    6MON     C6  231   3.930   3.149   2.806  1.2655 -0.9488 -0.3898
    6MON     C7  232   3.856   3.272   2.746 -0.0192  0.5001  0.6201
    6MON     C8  233   3.729   3.294   2.830  0.6352 -0.8192 -0.2652
    6MON     H1  234   4.127   3.342   2.892  0.1348  1.4128 -0.0643
    6MON      N  235   4.143   3.441   2.604  0.1973 -0.8040 -0.6958
    6MON    C10  236   4.210   3.527   2.512 -0.4676  0.2665  1.4915
    6MON    C11  237   4.210   3.478   2.361  0.7082 -0.4860 -0.0112
    6MON    C12  238   4.268   3.342   2.331 -0.4020  0.0000  0.1914
    6MON    C13  239   4.412   3.342   2.299  0.3205  0.6766 -0.3609
    6MON     O1  240   4.450   3.219   2.240  0.0493 -0.1909  0.0664
    6MON    C14  241   4.589   3.180   2.245  0.5432  0.2308 -0.7805
    6MON    C15  242   4.683   3.250   2.143  0.1358 -0.8881  0.5180
    6MON     O2  243   4.706   3.386   2.177 -0.0177  0.0354 -0.0371
    6MON    C16  244   4.816   3.167   2.122  0.1253  0.0481 -0.2685
    6MON    C17  245   4.885   3.193   1.986 -0.5842 -0.3616  0.5598
    6MON     O3  246   4.813   3.134   1.871  0.2432 -0.0778 -0.2914
    6MON     O4  247   4.807   3.019   2.129 -0.0548 -0.0332 -0.0115
    6MON    C18  248   4.740   2.965   2.243  0.4535  0.2671  0.2557
    6MON     O5  249   4.727   2.822   2.230 -0.1146 -0.0060  0.3860
    6MON    C19  250   4.596   3.027   2.228 -0.5780  0.8316 -0.1289
    6MON     O6  251   4.515   2.955   2.315 -0.3541  0.4881 -0.6124
    6MON    C20  252   4.211   3.358   2.693  0.6463 -0.3125  0.0006
    6MON     O7  253   4.329   3.339   2.690  0.4074 -0.0393  0.4195
    6MON     H2  254   4.129   3.102   2.848  0.8375 -1.9547 -1.0314
    6MON     H3  255   4.037   3.156   2.554  1.3661  1.4716  0.3252
    6MON     H6  256   3.924   3.154   2.915 -0.1900 -0.1345 -0.4827
    6MON     H7  257   3.887   3.050   2.790  1.5266 -1.1792  0.3027
    6MON     H8  258   3.832   3.254   2.641  1.6987  0.3125  0.2290
    6MON     H9  259   3.680   3.200   2.855  2.0647 -2.0250 -1.7467
    6MON    H12  260   4.314   3.544   2.542  0.5348  1.1463 -2.0720
    6MON    H13  261   4.152   3.620   2.515 -0.3419  0.3400  1.7155
    6MON    H14  262   4.104   3.464   2.334  0.5212 -2.2399  1.4369
    6MON    H15  263   4.252   3.551   2.291  1.1633 -1.8492 -1.2182
    6MON    H16  264   4.259   3.274   2.416 -0.5001 -1.3138 -0.8453
    6MON    H17  265   4.210   3.298   2.250 -1.1938 -0.9071  1.2206
    6MON    H18  266   4.469   3.355   2.392  1.8514 -1.7801 -0.8637
    6MON    H19  267   4.430   3.431   2.237 -0.3995  0.4999 -0.8447
    6MON    H20  268   4.623   3.200   2.348  2.1042  1.0744 -1.4236
    6MON    H21  269   4.633   3.243   2.046 -0.6114  0.7213  0.7521
    6MON    H22  270   4.653   3.403   2.257 -0.8766  0.0839 -0.6067
    6MON    H23  271   4.890   3.206   2.193 -1.0792 -0.4629  1.3318
    6MON    H24  272   4.901   3.301   1.975  1.6933 -0.4780  2.0943
    6MON    H25  273   4.986   3.152   1.978  0.0957  1.5786 -2.0425
    6MON    H26  274   4.791   3.047   1.909 -1.1908  1.2186  1.9998
    6MON    H27  275   4.794   2.989   2.335 -0.9095  2.8271  0.4805
    6MON    H28  276   4.677   2.812   2.147  1.8831 -1.6008 -0.7255
    6MON    H29  277   4.560   3.005   2.127 -0.3797 -1.1087  0.1724
    6MON    H30  278   4.527   2.999   2.401 -0.0303 -0.4599 -0.1510
    7MON      O  279   3.297   3.134   2.761 -0.1517  1.0049  0.1046
    7MON      C  280   3.363   3.229   2.792 -0.2630 -0.4113 -0.6417
    7MON     C1  281   3.384   3.284   2.938  0.0333  0.6640 -0.1792
    7MON      H  282   3.285   3.296   2.984  1.1028  1.2117  2.1167
    7MON     C2  283   3.443   3.430   2.914 -0.1166  0.7062  0.5372
    7MON     C3  284   3.582   3.437   2.984  0.0516 -0.0940 -0.2916
    7MON     C4  285   3.696   3.411   2.889  0.3431  0.2476  0.4186
    7MON     C6  286   3.577   3.322   3.090  0.0595  0.3628 -0.2570
    7MON     C7  287   3.478   3.214   3.034 -0.1125 -0.3482 -0.1024
    7MON     C8  288   3.390   3.137   3.137 -0.1017 -1.1718 -0.0183
    7MON     H1  289   3.374   3.503   2.957 -1.8441 -0.8365  0.4990
    7MON      N  290   3.399   3.325   2.706 -0.2071  0.3026  0.3304
    7MON    C10  291   3.364   3.311   2.559  0.6646 -0.2190  0.5999
    7MON    C11  292   3.489   3.260   2.475  0.9124  0.2412  0.0644
    7MON    C12  293   3.593   3.363   2.432  0.2640 -0.3652  0.7984
    7MON    C13  294   3.554   3.448   2.304 -0.5001  0.3635 -0.9654
    7MON     O1  295   3.572   3.361   2.194  0.1887 -0.2613 -0.0241
    7MON    C14  296   3.502   3.392   2.066 -0.0411 -0.7200 -0.7221
    7MON    C15  297   3.364   3.331   2.079  0.2507  0.2095 -0.1001
    7MON     O2  298   3.275   3.410   2.161  0.2754 -0.2376 -0.3046
    7MON    C16  299   3.295   3.322   1.943  0.5481  0.9152  0.5329
    7MON    C17  300   3.169   3.234   1.956  0.1319  0.5683 -0.5148
    7MON     O3  301   3.071   3.264   1.858  0.8589  0.1818 -0.8520
    7MON     O4  302   3.376   3.260   1.839  0.6048  0.1609  0.0996
    7MON    C18  303   3.499   3.331   1.823  0.2573  0.4618  0.2496
    7MON     O5  304   3.560   3.275   1.705  0.1244  0.2692 -0.4076
    7MON    C19  305   3.578   3.314   1.955  0.1421 -0.1504  0.0435
    7MON     O6  306   3.709   3.379   1.947 -0.4504  0.0171 -0.0103
    7MON    C20  307   3.441   3.449   2.759 -0.6323  0.2230  0.0043
    7MON     O7  308   3.483   3.537   2.690  0.4743 -0.7413 -0.0150
    7MON     H2  309   3.615   3.524   3.043  0.8480 -0.9493  0.5618
    7MON     H3  310   3.751   3.500   2.858  3.2211 -1.7528 -0.6591
    7MON     H6  311   3.544   3.362   3.187  0.9360 -0.1920  0.2778
    7MON     H7  312   3.674   3.278   3.114 -0.5783  0.4704  2.9774
    7MON     H8  313   3.527   3.138   2.972 -0.0652 -0.7076  0.3676
    7MON     H9  314   3.411   3.030   3.143  1.2771 -0.9607 -0.5599
    7MON    H12  315   3.321   3.405   2.523  0.8571 -0.0885  0.7074
    7MON    H13  316   3.271   3.254   2.551 -1.3760  2.4054  3.3982
    7MON    H14  317   3.541   3.178   2.526 -0.5076 -2.7521 -2.9054
    7MON    H15  318   3.444   3.217   2.384  0.0276 -1.3768  1.2124
    7MON    H16  319   3.610   3.440   2.508 -0.0858  0.5007  0.0260
    7MON    H17  320   3.689   3.312   2.415  1.1570  1.1425  1.1070
    7MON    H18  321   3.619   3.536   2.295 -0.1103  0.3306  1.0932
    7MON    H19  322   3.454   3.491   2.318  0.0223  0.8528  1.7696
    7MON    H20  323   3.503   3.497   2.032  1.4525 -0.3654  0.2986
    7MON    H21  324   3.376   3.230   2.120  0.4725  0.2514 -0.0601
    7MON    H22  325   3.298   3.394   2.254 -2.9712  2.1221  1.1062
    7MON    H23  326   3.270   3.422   1.905  2.7185  0.6140 -1.9683
    7MON    H24  327   3.200   3.129   1.946  1.4729  0.7057  1.6440
    7MON    H25  328   3.121   3.252   2.053  0.1401 -2.6530  0.2103
    7MON    H26  329   3.113   3.262   1.770  0.6784  0.4180 -0.9418
    7MON    H27  330   3.472   3.435   1.801 -0.7373  0.1193 -0.2033
    7MON    H28  331   3.595   3.191   1.740 -0.8696  0.3031  0.7246
    7MON    H29  332   3.586   3.210   1.990 -0.3752 -0.0893  0.3602
    7MON    H30  333   3.744   3.346   1.862 -4.0622 -1.5918 -1.0864
    8MON      O  334   3.449   3.301   3.739 -0.4094  0.3705  0.2861
    8MON      C  335   3.435   3.233   3.639 -0.3842  0.3934  0.2515
    8MON     C1  336   3.312   3.150   3.590  0.4242 -0.2117  0.4212
    8MON      H  337   3.272   3.081   3.665 -0.9015 -0.7812 -0.7774
    8MON     C2  338   3.364   3.073   3.468 -0.6205 -0.7301  0.3204
    8MON     C3  339   3.266   3.099   3.348 -0.3203 -0.4579 -0.0399
    8MON     C4  340   3.329   3.187   3.240  0.3034 -0.0418 -0.7447
    8MON     C6  341   3.150   3.165   3.419 -0.6613 -0.1642  0.5414
    8MON     C7  342   3.207   3.243   3.536 -0.0711  0.2937 -0.5747
    8MON     C8  343   3.103   3.275   3.648 -0.1072 -0.0606 -0.1479
    8MON     H1  344   3.378   2.965   3.486 -1.3733 -0.7482  0.8502
    8MON      N  345   3.538   3.212   3.549  0.2398 -0.2489  1.3528
    8MON    C10  346   3.684   3.230   3.590  0.5062  1.3143 -0.4611
    8MON    C11  347   3.725   3.382   3.564 -0.7189 -0.3898  0.0618
    8MON    C12  348   3.734   3.420   3.411 -0.3529 -0.6996 -0.1067
    8MON    C13  349   3.853   3.371   3.335 -0.7037  0.3189  0.3310
    8MON     O1  350   3.859   3.234   3.330 -0.2787  0.6434  0.1135
    8MON    C14  351   3.937   3.176   3.221 -0.0892 -0.0497  0.0023
    8MON    C15  352   3.908   3.027   3.236 -0.2526  0.0928 -0.2212
    8MON     O2  353   3.780   3.006   3.178  1.0010 -0.1065 -0.7156
    8MON    C16  354   4.015   2.934   3.159 -0.0768  0.0822  0.2580
    8MON    C17  355   3.997   2.786   3.193  0.0064 -0.8319 -0.1172
    8MON     O3  356   4.061   2.720   3.084  0.0895  0.1960 -0.5663
    8MON     O4  357   4.147   2.980   3.187  0.1794 -0.0369  0.2360
    8MON    C18  358   4.176   3.111   3.140 -0.1268 -0.0588  0.0746
    8MON     O5  359   4.323   3.136   3.149  0.4563  0.1689 -0.3730
    8MON    C19  360   4.089   3.211   3.224  0.7466  0.5942 -1.2633
    8MON     O6  361   4.112   3.339   3.157 -0.1505  0.3179  0.4141
    8MON    C20  362   3.510   3.127   3.449 -0.2535  0.2899  0.0878
    8MON     O7  363   3.587   3.083   3.367  0.6646  0.2627 -0.1234
    8MON     H2  364   3.221   3.009   3.305  1.5822 -1.1465 -0.6789
    8MON     H3  365   3.308   3.292   3.259 -0.8427 -0.7578  2.6575
    8MON     H6  366   3.074   3.093   3.454  0.5253 -1.0084  1.4709
    8MON     H7  367   3.111   3.234   3.344 -1.7408  0.2412  1.4350
    8MON     H8  368   3.258   3.331   3.496  0.9594 -0.1077 -0.1862
    8MON     H9  369   3.137   3.286   3.751 -1.0465  2.4603 -0.0284
    8MON    H12  370   3.750   3.157   3.543  1.9739  1.8354  0.7306
    8MON    H13  371   3.683   3.200   3.696 -0.7212  0.5489 -0.6635
    8MON    H14  372   3.652   3.454   3.603 -0.7274  0.5565 -1.6045
    8MON    H15  373   3.825   3.394   3.605 -0.6007  0.3974 -0.4292
    8MON    H16  374   3.642   3.377   3.369  1.1500 -2.3434 -1.8698
    8MON    H17  375   3.726   3.529   3.405  5.1830 -0.0613 -0.9147
    8MON    H18  376   3.945   3.411   3.379  0.0160 -0.5764 -0.3234
    8MON    H19  377   3.838   3.410   3.234 -2.8273  0.6947  0.7382
    8MON    H20  378   3.905   3.201   3.119 -0.8197 -0.5614  0.1030
    8MON    H21  379   3.913   2.996   3.341  2.6288 -0.7131 -0.4891
    8MON    H22  380   3.717   3.065   3.223 -0.4928 -1.2586 -1.2119
    8MON    H23  381   4.001   2.958   3.053  2.5615 -1.1224 -0.4486
    8MON    H24  382   4.029   2.755   3.294 -0.2179 -1.3739 -0.2116
    8MON    H25  383   3.890   2.762   3.197  0.3285 -2.3692  0.0585
    8MON    H26  384   4.055   2.624   3.094 -1.1938  0.1372 -1.6597
    8MON    H27  385   4.141   3.123   3.037  0.7158  0.1762 -0.1959
    8MON    H28  386   4.344   3.201   3.080  2.5577  0.4560  0.4642
    8MON    H29  387   4.129   3.201   3.325  1.2025 -1.1348 -1.5862
    8MON    H30  388   4.200   3.370   3.186 -0.2050  0.6861  0.1904
    9MON      O  389   2.742   3.727   3.399 -0.0120 -0.1836  0.1814
    9MON      C  390   2.818   3.665   3.476  0.7549  0.1420 -0.4981
    9MON     C1  391   2.776   3.604   3.611  0.6945 -1.1786  0.0146
    9MON      H  392   2.721   3.675   3.675 -2.3024 -2.4865 -0.9064
    9MON     C2  393   2.908   3.567   3.681 -0.2362 -0.0485  0.1675
    9MON     C3  394   2.902   3.414   3.716 -0.5603 -0.2512 -0.1413
    9MON     C4  395   2.987   3.333   3.624 -0.6843 -0.9147 -0.2459
    9MON     C6  396   2.753   3.368   3.695 -0.1862 -0.0069  0.2473
    9MON     C7  397   2.693   3.476   3.592 -0.5322  0.1518  0.0673
    9MON     C8  398   2.541   3.492   3.599 -0.0846  0.1641 -0.5270
    9MON     H1  399   2.918   3.626   3.772  1.5745 -1.0103  0.6406
    9MON      N  400   2.955   3.660   3.470 -0.4257  0.0430  0.4936
    9MON    C10  401   3.035   3.744   3.368 -0.3092  0.0727  0.5009
    9MON    C11  402   3.050   3.671   3.238  0.0066 -0.1273  0.0622
    9MON    C12  403   3.145   3.545   3.255  0.0301 -0.1236  0.5881
    9MON    C13  404   3.288   3.575   3.240 -0.6812  0.3507  0.2428
    9MON     O1  405   3.320   3.663   3.346  0.4263 -0.1651 -0.5818
    9MON    C14  406   3.455   3.685   3.385  0.2310 -0.3454 -0.7788
    9MON    C15  407   3.453   3.736   3.532 -0.8901  0.0411  0.1460
    9MON     O2  408   3.416   3.632   3.621 -0.0123  0.7154  0.2699
    9MON    C16  409   3.590   3.797   3.575  0.6782  0.8920  0.1500
    9MON    C17  410   3.574   3.857   3.717  0.0791  0.5332 -0.0095
    9MON     O3  411   3.693   3.913   3.761 -0.3247  0.1915  0.3502
    9MON     O4  412   3.625   3.903   3.484 -0.1108  0.0042  0.3700
    9MON    C18  413   3.647   3.863   3.343 -0.2453  1.2135 -0.0476
    9MON     O5  414   3.681   3.988   3.277 -0.2179 -0.6730  0.7987
    9MON    C19  415   3.525   3.792   3.293  0.0686 -0.2587  0.3568
    9MON     O6  416   3.548   3.738   3.163 -0.1390 -0.5169 -0.6340
    9MON    C20  417   3.013   3.620   3.586 -0.3974 -0.0468  0.3745
    9MON     O7  418   3.133   3.614   3.609  0.3150  0.0360  0.4934
    9MON     H2  419   2.923   3.392   3.822  1.5313  2.4763  0.1106
    9MON     H3  420   2.957   3.342   3.520 -2.0766 -0.3624  0.1751
    9MON     H6  421   2.696   3.359   3.788 -0.6265 -2.9096 -0.2313
    9MON     H7  422   2.741   3.263   3.667 -0.2996  0.2789 -0.8203
    9MON     H8  423   2.724   3.441   3.493  2.9581 -1.6755  1.6085
    9MON     H9  424   2.505   3.587   3.561 -0.8692 -0.3993 -1.2216
    9MON    H12  425   3.132   3.773   3.411  1.0274 -1.9382 -0.9867
    9MON    H13  426   2.987   3.837   3.335 -0.3825 -0.1446 -0.0107
    9MON    H14  427   2.953   3.639   3.199  0.4404 -1.2687 -0.1157
    9MON    H15  428   3.088   3.735   3.158 -0.9826 -0.2119 -0.4956
    9MON    H16  429   3.120   3.490   3.346 -0.4448 -1.5343 -0.3640
    9MON    H17  430   3.117   3.483   3.168  0.3456  2.8785 -1.8386
    9MON    H18  431   3.308   3.610   3.138 -1.5884  1.8425  0.5460
    9MON    H19  432   3.344   3.482   3.255 -1.3525  0.0395  0.8774
    9MON    H20  433   3.506   3.588   3.373 -0.7749 -0.7430 -2.0989
    9MON    H21  434   3.373   3.811   3.540  1.5397  2.8206  0.0419
    9MON    H22  435   3.346   3.589   3.568 -0.2168  2.5682 -1.0509
    9MON    H23  436   3.662   3.714   3.580  0.5065  0.7700  0.7490
    9MON    H24  437   3.503   3.940   3.707  0.7495  1.1795  0.4697
    9MON    H25  438   3.537   3.789   3.794  1.1955 -1.9221 -1.5371
    9MON    H26  439   3.708   3.976   3.688 -0.0881 -0.7061 -0.3907
    9MON    H27  440   3.731   3.792   3.346 -1.4786 -0.2713  2.0257
    9MON    H28  441   3.673   4.052   3.350 -1.1080 -0.2418  0.3396
    9MON    H29  442   3.446   3.867   3.279 -0.6917 -1.1670 -0.3312
    9MON    H30  443   3.467   3.732   3.109 -0.1357 -1.3914 -0.5513
   10MON      O  444   2.138   3.082   3.390 -0.2724  0.5250  0.0500
   10MON      C  445   2.198   3.185   3.428 -0.0632  0.0420 -0.0873
   10MON     C1  446   2.154   3.282   3.540 -0.2723  0.6496  0.3050
   10MON      H  447   2.051   3.310   3.517  0.1681  0.9575 -1.4120
   10MON     C2  448   2.237   3.410   3.512 -0.3498 -0.3647  0.3404
   10MON     C3  449   2.302   3.442   3.648  0.0524 -0.2490  0.9960
   10MON     C4  450   2.451   3.406   3.648 -0.3730  0.0642 -0.4074
   10MON     C6  451   2.229   3.352   3.759 -0.6739 -0.3953 -0.8408
   10MON     C7  452   2.173   3.227   3.682 -0.1964 -0.5374  0.1917
   10MON     C8  453   2.049   3.165   3.746 -0.5127 -0.3447 -0.6473
   10MON     H1  454   2.182   3.495   3.470 -0.6287 -1.3771 -1.4698
   10MON      N  455   2.310   3.236   3.372  0.1701  0.0154 -0.5448
   10MON    C10  456   2.381   3.166   3.267 -0.5993 -0.8874  0.0770
   10MON    C11  457   2.465   3.053   3.321 -0.0708 -0.0853  0.4012
   10MON    C12  458   2.581   3.100   3.407  0.7094 -0.5086  0.4819
   10MON    C13  459   2.693   3.165   3.332 -0.3735  0.1459  0.2336
   10MON     O1  460   2.748   3.077   3.237  0.2017 -0.2462 -0.1431
   10MON    C14  461   2.867   3.117   3.175  0.0077 -0.3954 -0.6841
   10MON    C15  462   2.849   3.247   3.089  0.2476 -0.5787 -0.6093
   10MON     O2  463   2.854   3.359   3.181 -0.1939  0.3165  0.0378
   10MON    C16  464   2.965   3.259   2.996 -0.3784 -0.0942 -0.1278
   10MON    C17  465   2.943   3.378   2.904 -0.8073  0.4904  0.4274
   10MON     O3  466   3.068   3.397   2.831 -0.3127  0.5163  0.0490
   10MON     O4  467   2.979   3.142   2.916  0.1971  0.2811 -0.3506
   10MON    C18  468   3.020   3.019   2.979  0.7311 -0.6973 -0.2068
   10MON     O5  469   3.023   2.911   2.887  0.6021 -0.0681  0.6518
   10MON    C19  470   2.930   2.989   3.098  0.7084  0.8340  0.1071
   10MON     O6  471   2.999   2.915   3.201  0.2601  0.0343  0.2323
   10MON    C20  472   2.334   3.368   3.398  0.0350 -0.6519 -0.1743
   10MON     O7  473   2.425   3.431   3.349  0.0529  0.0904 -0.2702
   10MON     H2  474   2.276   3.546   3.670 -0.8346  0.0537 -1.2757
   10MON     H3  475   2.481   3.306   3.678  2.2430  1.4531  2.1291
   10MON     H6  476   2.143   3.402   3.806 -0.7859 -2.0021  0.7613
   10MON     H7  477   2.291   3.319   3.844 -0.3327  2.2971  0.0613
   10MON     H8  478   2.255   3.155   3.675  0.0440 -0.2223 -0.3007
   10MON     H9  479   1.963   3.191   3.685 -0.4433  1.7626  0.0474
   10MON    H12  480   2.442   3.229   3.200 -1.2046 -0.5457 -0.1580
   10MON    H13  481   2.307   3.120   3.201 -1.3517  0.0659  0.2325
   10MON    H14  482   2.408   2.984   3.384 -0.3202  2.0058  2.6002
   10MON    H15  483   2.507   2.994   3.239 -0.5072 -1.7373  1.3082
   10MON    H16  484   2.545   3.169   3.484  0.6013 -0.7964  0.6857
   10MON    H17  485   2.626   3.013   3.456  1.6570 -0.1260  0.3166
   10MON    H18  486   2.764   3.200   3.407  1.0156  0.4377 -1.1575
   10MON    H19  487   2.651   3.245   3.268  2.3484  1.6544  0.1921
   10MON    H20  488   2.933   3.155   3.254 -1.2126 -0.1622  0.2683
   10MON    H21  489   2.752   3.247   3.037  0.5500  2.2024 -1.3178
   10MON    H22  490   2.781   3.420   3.161  0.1360  0.6885 -0.0408
   10MON    H23  491   3.059   3.272   3.052 -0.4229 -1.5071  0.3218
   10MON    H24  492   2.865   3.360   2.829 -0.8359 -0.1359  0.6047
   10MON    H25  493   2.922   3.462   2.972  1.1131 -0.2916  2.0606
   10MON    H26  494   3.094   3.311   2.796  0.8326 -0.1580  2.3405
   10MON    H27  495   3.125   3.033   3.007  0.9959  1.3239 -1.9983
   10MON    H28  496   3.049   2.827   2.927 -0.3399 -1.1849 -0.9517
   10MON    H29  497   2.847   2.942   3.044  0.5251  3.8883 -2.6233
   10MON    H30  498   2.939   2.921   3.277 -0.2140  1.4866 -0.2231
   11MNL      O  499   1.885   2.730   4.113  0.3349 -0.1256 -0.6250
   11MNL      C  500   1.935   2.840   4.117  0.3434 -0.3468  0.2232
   11MNL     C1  501   2.080   2.864   4.092 -1.0291 -0.3285  0.2208
   11MNL      H  502   2.141   2.845   4.181  1.2175 -0.7649 -1.3343
   11MNL     C2  503   2.101   3.018   4.093 -0.1208  0.0526 -0.1693
   11MNL     C3  504   2.143   3.054   3.950  0.4411  0.4986 -0.4729
   11MNL     C4  505   2.029   3.093   3.860 -0.1561 -0.3978  0.4649
   11MNL     C6  506   2.215   2.924   3.896 -0.0565  0.5647  0.3070
   11MNL     C7  507   2.138   2.805   3.961 -0.1079 -0.3919 -0.2840
   11MNL     C8  508   2.239   2.696   3.984  0.3274  0.5264 -0.4762
   11MNL     H1  509   2.179   3.050   4.163  0.8181  0.1788 -1.2484
   11MNL      N  510   1.870   2.966   4.137 -0.6212  0.2153 -1.0941
   11MNL    C10  511   1.736   2.978   4.205  0.1180  1.2240  0.4821
   11MNL    C11  512   1.628   3.014   4.101 -0.2459  0.0016 -0.3070
   11MNL    C12  513   1.580   2.891   4.021  0.3690 -0.4373  0.2720
   11MNL    C13  514   1.484   2.925   3.909 -0.2168 -0.5402 -0.3936
   11MNL     O1  515   1.360   2.962   3.977 -0.4564 -0.3957 -0.0564
   11MNL    C14  516   1.250   3.001   3.900  0.4954 -0.3377  0.0416
   11MNL    C15  517   1.268   3.159   3.877 -0.7026  0.3869  0.0624
   11MNL     O2  518   1.372   3.179   3.780  0.3276  0.4291  0.1157
   11MNL    C16  519   1.139   3.218   3.821  0.4209  0.0213  0.7551
   11MNL    C17  520   1.148   3.366   3.798 -0.6540 -0.8866  0.4165
   11MNL     O3  521   1.029   3.409   3.724  0.3253 -0.0127  0.2391
   11MNL     O4  522   1.026   3.191   3.906 -0.0458 -0.4417 -0.4413
   11MNL    C18  523   0.995   3.057   3.926 -0.0436 -0.5690  0.8184
   11MNL     O5  524   0.888   3.060   4.009  0.0464  0.7724 -0.1349
   11MNL    C19  525   1.119   2.983   3.982  0.3378  0.3945  0.1897
   11MNL     O6  526   1.094   2.847   3.991 -0.2690  0.0773 -0.8602
   11MNL    C20  527   1.962   3.067   4.138  0.1085 -0.1131  0.2593
   11MNL     O7  528   1.937   3.184   4.164 -0.1443 -0.0043 -0.3625
   11MNL     H2  529   2.208   3.140   3.969 -0.0677  0.6003  0.9071
   11MNL     H3  530   1.924   3.071   3.881 -0.7660  1.5371 -0.2574
   11MNL     H6  531   2.316   2.936   3.936  1.4891 -0.8137 -2.7957
   11MNL     H7  532   2.227   2.914   3.787 -1.9220  0.9245  0.0373
   11MNL     H8  533   2.061   2.776   3.888 -2.6059  0.7412  1.7696
   11MNL     H9  534   2.231   2.612   3.916 -3.8643  1.0097 -0.8490
   11MNL    H12  535   1.739   3.045   4.292  2.5418  2.5129 -0.5119
   11MNL    H13  536   1.710   2.876   4.236 -0.6159  1.5457  0.9369
   11MNL    H14  537   1.539   3.057   4.147 -0.1644 -0.7512  0.5746
   11MNL    H15  538   1.672   3.096   4.042  0.2967  0.3937  0.6292
   11MNL    H16  539   1.664   2.834   3.978 -1.1926 -2.1373 -0.6874
   11MNL    H17  540   1.531   2.821   4.091 -3.6012  1.0304 -0.8083
   11MNL    H18  541   1.471   2.851   3.829 -2.2790  1.5072 -2.0911
   11MNL    H19  542   1.526   3.011   3.855 -0.1836  0.1538  0.6991
   11MNL    H20  543   1.250   2.947   3.804 -4.4304 -0.1710 -0.3164
   11MNL    H21  544   1.288   3.213   3.971 -0.9539  0.6514 -0.0336
   11MNL    H22  545   1.365   3.117   3.706 -1.2425  0.6194  0.0746
   11MNL    H23  546   1.125   3.176   3.720 -2.8516  0.5009  0.9059
   11MNL    H24  547   1.135   3.413   3.896  0.2507 -1.6291  0.9066
   11MNL    H25  548   1.244   3.389   3.749 -1.2413  0.6793 -0.0782
   11MNL    H26  549   0.954   3.352   3.747 -0.6747  1.3922  0.6527
   11MNL    H27  550   0.958   3.006   3.837  0.5180 -0.0750  0.2843
   11MNL    H28  551   0.869   2.965   4.012  2.4235 -0.0020 -3.6864
   11MNL    H29  552   1.137   3.024   4.082  1.9207  2.4786 -0.8809
   11MNL    H30  553   1.181   2.817   4.023  0.7712  3.6021  0.0890
   12CPT     CC  554   2.336   2.691   4.082 -0.4807 -0.1708  0.0115
   12CPT    HC1  555   2.349   2.767   4.159 -1.1018  1.2296 -1.2191
   12CPT    HC2  556   2.395   2.601   4.100 -0.5244 -0.5535 -1.6047
   13WAT      O  557   5.356   3.586   5.496  0.3321 -0.1286 -0.0842
   13WAT     H1  558   5.386   3.519   5.435 -0.0426 -0.2849 -0.0932
   13WAT     H2  559   5.393   3.668   5.461  1.7504 -0.4645  0.5567
   14WAT      O  560   1.745   2.418   5.147 -0.2585 -0.4021 -0.1296
   14WAT     H1  561   1.660   2.463   5.143 -0.7337 -1.1799  0.9434
   14WAT     H2  562   1.753   2.376   5.061 -0.4435  0.5619 -0.6422
   15WAT      O  563   6.633   4.214   2.607  0.0205  0.2380  0.1576
   15WAT     H1  564   6.618   4.302   2.573 -0.7666 -0.2175 -0.7151
   15WAT     H2  565   6.725   4.195   2.586 -0.3983  0.0214 -1.6432
   16WAT      O  566   7.149   3.930   2.551 -0.1116 -0.1843 -0.5968
   16WAT     H1  567   7.111   4.008   2.591  1.5493  1.3920 -1.9288
   16WAT     H2  568   7.089   3.908   2.480 -0.8044 -0.4105  0.0453
   17WAT      O  569   7.342   4.810   3.281  0.5895 -0.1611 -0.0265
   17WAT     H1  570   7.350   4.866   3.358 -1.8050  0.0973  0.1231
   17WAT     H2  571   7.421   4.827   3.230  1.0764  1.5013  1.2064
   18WAT      O  572   3.298   0.336   5.433  0.1321 -0.1746  0.2514
   18WAT     H1  573   3.215   0.291   5.453  0.3167 -1.4189 -1.4754
   18WAT     H2  574   3.274   0.402   5.368  0.5516 -1.0753 -0.8714
   19WAT      O  575   6.375   4.409   5.087 -0.1425  0.5816 -0.2537
   19WAT     H1  576   6.353   4.416   4.994  2.3384  1.1833 -0.8552
   19WAT     H2  577   6.311   4.466   5.131 -1.0741  0.6289 -1.6125
   20WAT      O  578   5.152   5.537   3.976 -0.3477  0.1754  0.6429
   20WAT     H1  579   5.187   5.584   3.900  0.3972 -1.4110 -0.0249
   20WAT     H2  580   5.180   5.589   4.051  0.0418  1.0507 -0.0947
   21WAT      O  581   6.753   3.575   4.397  0.3874 -0.0783  0.6868
   21WAT     H1  582   6.796   3.525   4.328  0.5489  0.6498  0.2426
   21WAT     H2  583   6.670   3.530   4.412  0.3174 -0.2077 -0.0414
   22WAT      O  584   5.774   4.597   4.778  0.2268 -0.5233  0.8266
   22WAT     H1  585   5.818   4.512   4.787 -1.8249 -1.5155  2.1993
   22WAT     H2  586   5.780   4.636   4.865 -0.2844  0.0122  0.6285
   23WAT      O  587   0.561   3.838   3.108  0.5269  0.2077  1.0080
   23WAT     H1  588   0.543   3.807   3.196  0.9901 -0.5983  0.8200
   23WAT     H2  589   0.622   3.775   3.071  1.0444  1.0229  0.4181
   24WAT      O  590   5.553   2.054   0.896  0.3365 -0.1703  0.2304
   24WAT     H1  591   5.541   2.129   0.953 -0.4192 -0.4371  0.4349
   24WAT     H2  592   5.485   2.064   0.829  1.3942  0.3013 -0.8150
   25WAT      O  593   5.661   4.972   4.500 -0.0578 -0.1436 -0.0465
   25WAT     H1  594   5.595   4.987   4.433  0.4079  0.0506 -0.4713
   25WAT     H2  595   5.740   5.015   4.466 -0.4482  2.2533  1.7512
   26WAT      O  596   5.125   5.495   4.604 -0.8925  0.7699  0.3582
   26WAT     H1  597   5.217   5.468   4.603 -1.1603 -0.1695 -0.1462
   26WAT     H2  598   5.092   5.463   4.688 -0.6880  1.3731  0.6717
   27WAT      O  599   4.657   1.014   0.841  0.3574 -0.3851 -0.1753
   27WAT     H1  600   4.697   0.928   0.852 -1.5862 -1.1738  1.4846
   27WAT     H2  601   4.616   1.011   0.755  2.6995  0.0252 -1.4041
   28WAT      O  602   6.853   4.825   1.303  0.5362  0.1744 -0.2275
   28WAT     H1  603   6.889   4.781   1.380  2.5672  0.5252 -0.8935
   28WAT     H2  604   6.771   4.863   1.333  0.0145 -1.8270  1.0527
   29WAT      O  605   4.259   2.266   5.490 -0.3261 -0.6173 -0.0067
   29WAT     H1  606   4.257   2.349   5.538 -0.7987 -0.5409 -0.1547
   29WAT     H2  607   4.167   2.247   5.471 -0.1255 -0.5099 -1.1356
   30WAT      O  608   5.615   4.878   4.165  0.4584 -0.3421  0.6673
   30WAT     H1  609   5.609   4.797   4.115  0.3485  0.2205 -0.2496
   30WAT     H2  610   5.542   4.873   4.226 -0.3820 -0.3328 -0.3046
   31WAT      O  611   4.352   1.137   4.777 -0.1780 -0.7794  0.4421
   31WAT     H1  612   4.425   1.075   4.772  0.7771  0.4202 -1.8645
   31WAT     H2  613   4.291   1.108   4.710  0.6506  1.1206 -1.2345
   32WAT      O  614   5.542   4.850   4.754 -0.4471  0.4313 -0.2727
   32WAT     H1  615   5.600   4.884   4.686  1.9633  1.7063  2.2515
   32WAT     H2  616   5.562   4.757   4.759  0.8128  0.6991 -0.0229
   33WAT      O  617   6.999   5.120   1.929 -0.6353  0.3779  0.0909
   33WAT     H1  618   6.961   5.046   1.881 -0.6901  1.8738 -2.3085
   33WAT     H2  619   7.079   5.084   1.968 -0.4722 -0.8624 -1.3027
   34WAT      O  620   1.210   4.297   4.171 -0.0401 -0.1289  0.3491
   34WAT     H1  621   1.116   4.291   4.185  0.0755  0.1938  1.3463
   34WAT     H2  622   1.247   4.308   4.259  0.8230  0.9869 -0.1242
   35WAT      O  623   5.072   1.569   4.161 -0.0961 -0.2522 -0.2966
   35WAT     H1  624   5.070   1.547   4.254 -0.1546  0.5927 -0.0879
   35WAT     H2  625   5.062   1.664   4.159  0.3653 -0.2145 -1.1461
   36WAT      O  626   6.487   4.804   4.478  0.1333 -0.1298 -0.5657
   36WAT     H1  627   6.521   4.860   4.547  0.5286  0.7456 -1.4469
   36WAT     H2  628   6.430   4.861   4.427 -0.6930 -0.9390 -0.5844
   37WAT      O  629   4.478   4.740   3.011 -0.2942 -0.7215 -0.3145
   37WAT     H1  630   4.562   4.785   3.006 -0.1082 -0.6649  2.0365
   37WAT     H2  631   4.419   4.794   2.960  0.4489  0.9425  0.4957
   38WAT      O  632   6.358   0.519   4.094  0.0643 -0.6541 -0.4188
   38WAT     H1  633   6.336   0.450   4.031 -1.2915 -0.4392 -0.2138
   38WAT     H2  634   6.354   0.476   4.179 -0.9664 -0.3103 -0.2759
   39WAT      O  635   4.570   5.273   0.015 -0.3829 -0.4234  0.5199
   39WAT     H1  636   4.555   5.206  -0.051  0.6213  0.0990 -0.2642
   39WAT     H2  637   4.483   5.309   0.033 -0.7418 -0.9759 -0.0870
   40WAT      O  638   7.413   3.619   2.825  0.2168 -0.1432 -0.1004
   40WAT     H1  639   7.437   3.703   2.865  0.6900 -1.4547  2.5570
   40WAT     H2  640   7.389   3.642   2.735 -0.1404  2.9018  0.6611
   41WAT      O  641   5.063   1.143   4.239  0.2185 -0.9417 -0.5076
   41WAT     H1  642   5.067   1.178   4.328 -0.2451  0.3756 -0.9904
   41WAT     H2  643   4.970   1.145   4.216  0.4010 -0.6985 -1.2405
   42WAT      O  644   4.483   5.822   5.467 -0.6137  0.5487  0.6923
   42WAT     H1  645   4.408   5.877   5.441  1.0451  2.8180  0.4286
   42WAT     H2  646   4.514   5.785   5.384 -1.1066 -0.0179  0.7460
   43WAT      O  647   6.981   3.395   0.466 -0.3570 -0.0829 -0.6533
   43WAT     H1  648   6.943   3.426   0.384 -0.7996 -0.7100 -0.6927
   43WAT     H2  649   7.019   3.310   0.445  1.2333  0.6103 -0.6482
   44WAT      O  650   6.427   3.402   0.544  0.2926 -0.1328 -0.5738
   44WAT     H1  651   6.429   3.395   0.448 -2.6724  1.2227 -0.8399
   44WAT     H2  652   6.517   3.424   0.567  2.0343 -4.0745 -2.5837
   45WAT      O  653   3.828   0.341   2.664 -0.7295  0.0759 -0.4807
   45WAT     H1  654   3.811   0.392   2.743 -0.4158  0.1322 -0.4514
   45WAT     H2  655   3.917   0.309   2.674 -0.8074 -0.2010 -0.6544
   46WAT      O  656   0.332   5.873   3.019  0.0434  0.2151  0.2967
   46WAT     H1  657   0.260   5.821   3.053  0.6420 -1.9365 -1.4800
   46WAT     H2  658   0.298   5.963   3.014 -2.1223 -0.5553  0.4921
   47WAT      O  659   4.309   5.785   5.826 -0.4832  0.2015  0.4606
   47WAT     H1  660   4.256   5.764   5.749 -0.0160  0.6128  0.0080
   47WAT     H2  661   4.255   5.762   5.901 -1.8882  1.9189  0.0415
   48WAT      O  662   5.344   4.226   4.266 -0.4848  0.0836  0.2421
   48WAT     H1  663   5.363   4.133   4.256  0.3405  0.3191 -0.4947
   48WAT     H2  664   5.294   4.249   4.187  0.2584  0.4988 -0.1131
   49WAT      O  665   3.777   1.506   5.959  0.4973 -0.9479  0.0962
   49WAT     H1  666   3.693   1.486   6.000  0.4042 -1.3211 -0.2726
   49WAT     H2  667   3.757   1.516   5.866  0.4682  1.2597  0.2883
   50WAT      O  668   6.879   0.794   3.076 -0.1293  0.0807 -0.1308
   50WAT     H1  669   6.854   0.701   3.078 -0.2702  0.0520 -1.6887
   50WAT     H2  670   6.825   0.835   3.143 -0.0821 -0.9493  0.5679
   51WAT      O  671   5.608   0.570   2.894  0.4332 -0.5883 -0.8030
   51WAT     H1  672   5.685   0.536   2.849  1.2006  2.3700 -1.9688
   51WAT     H2  673   5.631   0.564   2.987  2.0632  0.1248 -1.1231
   52WAT      O  674   5.293   4.220   3.829 -0.3019 -0.0693  0.0147
   52WAT     H1  675   5.300   4.279   3.754  1.2500  1.0527  0.9720
   52WAT     H2  676   5.331   4.138   3.799  2.8984  1.1718  0.2735
   53WAT      O  677   4.731   4.352   3.342  0.0922 -0.1656 -0.2556
   53WAT     H1  678   4.688   4.431   3.374  0.9266  0.4019 -0.4922
   53WAT     H2  679   4.667   4.311   3.284 -1.2008 -0.8757  1.5756
   54WAT      O  680   6.820   2.752   4.480 -0.8374  0.2482  0.4349
   54WAT     H1  681   6.802   2.820   4.415 -0.1408  0.2307  0.2150
   54WAT     H2  682   6.800   2.793   4.564  0.2010  0.9588  0.3573
   55WAT      O  683   0.959   4.584   3.163  0.4114  0.1202  0.4090
   55WAT     H1  684   0.886   4.612   3.217 -0.7897  0.1079 -1.1382
   55WAT     H2  685   0.942   4.492   3.145 -0.2706  0.5817 -1.5321
   56WAT      O  686   7.411   3.932   4.365  0.0443  0.2429 -0.0334
   56WAT     H1  687   7.381   3.846   4.335  1.3958 -0.2608 -0.0127
   56WAT     H2  688   7.423   3.983   4.284 -0.1893  0.2233 -0.0813
   57WAT      O  689   5.905   2.995   5.738  0.7397 -0.1374  0.4315
   57WAT     H1  690   5.890   3.037   5.653 -0.3010 -0.0946  0.6202
   57WAT     H2  691   5.977   2.934   5.722  1.2287  0.5889 -0.2338
   58WAT      O  692   5.946   2.101   3.433 -0.1192  0.0366  0.6471
   58WAT     H1  693   5.861   2.085   3.475 -0.9502 -0.3036 -1.0594
   58WAT     H2  694   6.004   2.036   3.471 -0.6401  0.1844  1.7481
   59WAT      O  695   0.680   2.873   5.797 -0.8164  0.1117 -0.2697
   59WAT     H1  696   0.753   2.913   5.750 -0.4369  0.1526  0.3465
   59WAT     H2  697   0.693   2.778   5.786 -0.4338  0.1086  0.1886
   60WAT      O  698   1.406   4.712   4.676  0.0187 -0.0213 -0.0189
   60WAT     H1  699   1.430   4.785   4.618 -1.6727  0.2936 -0.3549
   60WAT     H2  700   1.453   4.730   4.758  2.2757 -0.3651 -1.1696
   61WAT      O  701   5.710   5.192   3.320  0.5036 -0.2644 -0.4382
   61WAT     H1  702   5.656   5.255   3.273  0.8385  1.0521  0.8879
   61WAT     H2  703   5.790   5.185   3.267  0.8010  1.0687 -0.2034
   62WAT      O  704   6.468   5.470   2.265 -0.1185  0.0999 -0.5065
   62WAT     H1  705   6.534   5.404   2.246 -1.1856 -1.3859  0.7238
   62WAT     H2  706   6.502   5.550   2.225  2.7860 -0.4154  0.6552
   63WAT      O  707   5.450   5.538   3.738  0.4990 -0.6138  0.4419
   63WAT     H1  708   5.433   5.448   3.712  1.6220 -0.4506 -0.9814
   63WAT     H2  709   5.372   5.586   3.711  0.8415 -0.7844 -0.8751
   64WAT      O  710   4.765   5.999   4.455  0.3053  0.0976  0.6083
   64WAT     H1  711   4.819   5.980   4.378  2.7857  1.1011  1.9777
   64WAT     H2  712   4.792   5.933   4.519 -1.3379 -0.3837  0.8435
   65WAT      O  713   4.914   5.126   3.755 -0.2138 -0.0818  0.2487
   65WAT     H1  714   4.910   5.212   3.711  1.8644  0.2246  0.5244
   65WAT     H2  715   4.875   5.066   3.692 -0.7420  0.9095 -0.4107
   66WAT      O  716   0.233   5.083   3.908 -0.1333 -0.5197 -0.0109
   66WAT     H1  717   0.218   5.125   3.824 -2.3140 -0.8060  0.1708
   66WAT     H2  718   0.300   5.137   3.951  1.3908 -0.6519 -2.0687
   67WAT      O  719   0.107   4.984   3.390  0.2615 -0.2908  0.2848
   67WAT     H1  720   0.159   4.910   3.358 -0.5718 -0.5683 -0.4630
   67WAT     H2  721   0.154   5.061   3.359  0.4322 -0.5345 -0.0724
   68WAT      O  722   6.601   3.992   5.295  0.5126 -0.8784 -0.3071
   68WAT     H1  723   6.553   3.995   5.213  2.0076  3.2574 -1.3090
   68WAT     H2  724   6.692   3.978   5.269  0.9588  0.1385  0.6221
   69WAT      O  725   1.569   0.117   3.064 -0.2167 -0.3418 -0.1073
   69WAT     H1  726   1.492   0.157   3.024 -1.6999  0.2994  3.0902
   69WAT     H2  727   1.534   0.062   3.134  2.1997 -0.1335  1.3803
   70WAT      O  728   6.337   1.487   2.850  0.4590 -0.6102  0.0319
   70WAT     H1  729   6.250   1.478   2.888  0.1513  0.4696 -0.3539
   70WAT     H2  730   6.398   1.474   2.923 -0.0768  0.0624  0.6164
   71WAT      O  731   7.282   5.145   3.445 -0.1888 -0.0397  0.0611
   71WAT     H1  732   7.358   5.141   3.386 -1.1919 -1.1619 -1.2048
   71WAT     H2  733   7.320   5.138   3.533  1.1857 -0.5083 -0.5412
   72WAT      O  734   6.930   3.678   3.356  0.0572  0.3187  0.5069
   72WAT     H1  735   6.926   3.689   3.261 -0.2713 -0.3307  0.4362
   72WAT     H2  736   6.942   3.584   3.368 -1.2646  0.1996  1.1255
   73WAT      O  737   0.058   0.442   2.301 -0.1932 -0.1050 -0.0856
   73WAT     H1  738  -0.036   0.427   2.315 -0.7536 -0.3380 -3.4122
   73WAT     H2  739   0.070   0.534   2.325 -0.9671 -0.3771  1.5053
   74WAT      O  740   0.415   4.684   2.354 -0.5148  0.1930  0.1797
   74WAT     H1  741   0.434   4.758   2.412  1.2246  0.3337 -0.4948
   74WAT     H2  742   0.454   4.709   2.270  0.0364 -1.4318 -0.0861
   75WAT      O  743   6.735   5.693   2.192 -0.1849  0.7902  0.2921
   75WAT     H1  744   6.657   5.724   2.147 -0.2251  1.9645  1.1411
   75WAT     H2  745   6.753   5.759   2.259  1.2419  0.2933  0.4448
   76WAT      O  746   5.831   0.564   3.890 -0.6613 -0.4467  0.0045
   76WAT     H1  747   5.738   0.577   3.902 -0.9585 -1.4503 -0.9854
   76WAT     H2  748   5.839   0.473   3.859  0.7245 -0.7312  1.0692
   77WAT      O  749   6.642   4.637   2.725  1.0281  0.4443 -0.0713
   77WAT     H1  750   6.633   4.732   2.738 -0.3865  0.2727  0.4234
   77WAT     H2  751   6.710   4.610   2.787 -1.8345  0.4746  3.3708
   78WAT      O  752   5.363   6.010   1.907 -0.4313 -0.3514  0.6314
   78WAT     H1  753   5.366   5.934   1.850 -0.8437  0.5163 -0.5820
   78WAT     H2  754   5.284   6.057   1.881  0.0857  0.7621  1.0070
   79WAT      O  755   5.859   0.433   2.950 -0.2768 -0.2507  0.3949
   79WAT     H1  756   5.899   0.519   2.962  0.1342 -0.6164  1.7460
   79WAT     H2  757   5.895   0.402   2.867 -1.8839  1.6349 -1.1309
   80WAT      O  758   5.655   0.363   2.455  0.0598  0.1472 -0.1508
   80WAT     H1  759   5.615   0.307   2.522  1.1321  2.0932  2.2787
   80WAT     H2  760   5.589   0.429   2.436  0.7889  1.3758  1.3480
   81WAT      O  761   5.453   4.053   3.080  0.7870 -0.4936 -0.2369
   81WAT     H1  762   5.416   3.965   3.075  0.2401 -0.2076 -1.7362
   81WAT     H2  763   5.410   4.101   3.009 -0.3221  1.5253  1.6829
   82WAT      O  764   5.914   4.178   3.680  0.4457  0.1713 -0.2371
   82WAT     H1  765   5.931   4.195   3.773  1.4607  3.2408 -0.8564
   82WAT     H2  766   5.819   4.189   3.671 -0.0632 -2.5285  0.7386
   83WAT      O  767   7.271   4.113   2.325  0.2437 -0.2464  0.5597
   83WAT     H1  768   7.336   4.130   2.393  0.2137 -2.0921  1.1089
   83WAT     H2  769   7.221   4.038   2.358 -2.1254  1.0359  0.1117
   84WAT      O  770   6.784   0.079   3.449  0.3410  0.0915  0.0889
   84WAT     H1  771   6.801   0.075   3.543 -2.1471  0.5527  0.6273
   84WAT     H2  772   6.771  -0.012   3.423  0.7373 -0.0125  0.2437
   85WAT      O  773   6.536   4.833   3.490  0.2751  0.0038  0.4821
   85WAT     H1  774   6.601   4.857   3.424  0.9931  0.5123  1.3718
   85WAT     H2  775   6.456   4.876   3.461 -0.0298 -1.5767 -1.2702
   86WAT      O  776   6.109   4.114   3.154 -0.1216 -0.0331  0.2806
   86WAT     H1  777   6.015   4.113   3.175 -0.3880  0.3527 -0.7988
   86WAT     H2  778   6.149   4.168   3.222 -0.6164 -0.5539  0.9940
   87WAT      O  779   0.477   3.164   4.323 -0.2630  0.0612  0.0468
   87WAT     H1  780   0.542   3.226   4.354 -0.5907  1.2166 -1.4480
   87WAT     H2  781   0.400   3.217   4.305 -0.8881 -0.9351 -0.3247
   88WAT      O  782   4.828   0.194   2.845 -0.4253 -0.0420 -0.2110
   88WAT     H1  783   4.759   0.136   2.879 -2.1231  1.7081 -0.4760
   88WAT     H2  784   4.860   0.150   2.766  0.0536 -1.7432  0.8782
   89WAT      O  785   0.632   0.334   3.821 -0.0044 -0.4483  0.0731
   89WAT     H1  786   0.711   0.387   3.821  0.5869 -1.3112  0.6229
   89WAT     H2  787   0.599   0.340   3.911 -0.5129 -0.1697 -0.1289
   90WAT      O  788   3.927   2.034   0.622 -0.1539 -0.2882 -0.5818
   90WAT     H1  789   3.834   2.032   0.645 -0.2183  1.5988 -0.5759
   90WAT     H2  790   3.972   2.054   0.704 -0.1998  3.9495 -1.3614
   91WAT      O  791   6.611   4.878   1.421  0.0155  0.0992 -0.0988
   91WAT     H1  792   6.583   4.938   1.352 -0.4761  0.3013  0.2731
   91WAT     H2  793   6.542   4.812   1.424  0.4310 -0.3526 -0.3374
   92WAT      O  794   7.387   5.152   3.692 -0.4928  0.5171 -0.6528
   92WAT     H1  795   7.460   5.214   3.699 -0.4414  0.2858  1.5229
   92WAT     H2  796   7.361   5.136   3.783 -0.5156 -2.6307 -1.1176
   93WAT      O  797   0.465   3.030   5.855 -0.0013 -0.2158 -0.2372
   93WAT     H1  798   0.552   2.991   5.854  0.2378  0.2484  0.9890
   93WAT     H2  799   0.454   3.061   5.945 -1.4402 -0.2881 -0.3703
   94WAT      O  800   2.355   5.415   5.522  0.0443  0.2164  0.2417
   94WAT     H1  801   2.303   5.335   5.514 -1.6903  1.0332  2.2453
   94WAT     H2  802   2.382   5.435   5.432 -1.3986 -1.3962 -0.6129
   95WAT      O  803   4.452   5.283   2.509 -0.3426 -0.5347 -0.3409
   95WAT     H1  804   4.475   5.308   2.599  1.4037 -0.2361 -0.8416
   95WAT     H2  805   4.401   5.357   2.477  3.0755  1.7161 -1.1272
   96WAT      O  806   0.570   5.202   3.271  0.1208 -0.0476 -0.1308
   96WAT     H1  807   0.532   5.216   3.357 -0.3978  1.0370 -0.5160
   96WAT     H2  808   0.615   5.118   3.278  0.1402  0.0549  1.2039
   97WAT      O  809   6.011   4.789   4.698 -0.7698 -0.1562 -0.2549
   97WAT     H1  810   6.023   4.801   4.792 -0.8533 -2.9158  0.2068
   97WAT     H2  811   5.941   4.724   4.691 -0.0195 -0.8371 -2.1756
   98WAT      O  812   5.252   0.688   3.595  0.1273  0.5728  0.2501
   98WAT     H1  813   5.195   0.740   3.653  0.3266  1.5885 -0.4313
   98WAT     H2  814   5.332   0.740   3.588  0.1778  0.3800 -0.7921
   99WAT      O  815   0.135   4.704   4.103 -0.6766  0.5792  0.3480
   99WAT     H1  816   0.059   4.761   4.116 -0.4828  0.8971  0.0801
   99WAT     H2  817   0.167   4.726   4.016  0.9420  1.9117  1.2119
  100WAT      O  818   5.968   5.568   3.541 -0.3353 -0.5467  0.6142
  100WAT     H1  819   5.882   5.528   3.527 -1.0856  1.2665 -0.1874
  100WAT     H2  820   5.957   5.624   3.618 -0.5352  1.3995 -0.7722
  101WAT      O  821   5.657   4.580   3.414 -0.1873  0.0373 -0.7192
  101WAT     H1  822   5.646   4.582   3.509  4.2201  1.5651 -0.0211
  101WAT     H2  823   5.678   4.488   3.394 -1.0776 -0.2774 -0.2664
  102WAT      O  824   7.299   4.234   3.888  0.3942 -0.7825 -0.2843
  102WAT     H1  825   7.231   4.290   3.849 -0.5681 -3.3323 -2.5442
  102WAT     H2  826   7.378   4.288   3.884 -0.2640  0.1733 -3.2451
  103WAT      O  827   1.095   0.747   3.092  0.0528  0.0722  0.0145
  103WAT     H1  828   1.168   0.736   3.032 -0.4236 -2.3651 -0.2238
  103WAT     H2  829   1.122   0.700   3.171 -0.7536  0.2232  0.3884
  104WAT      O  830   6.000   4.104   4.485 -0.2670  0.0933  0.4907
  104WAT     H1  831   5.909   4.128   4.503  0.0460  0.2447  1.9987
  104WAT     H2  832   6.013   4.023   4.534  0.1225 -0.5208 -0.5861
  105WAT      O  833   5.701   0.577   3.417 -0.0530  0.0211 -0.5314
  105WAT     H1  834   5.690   0.649   3.480  1.6617  0.7057 -0.9492
  105WAT     H2  835   5.659   0.502   3.459  2.3535  0.0278  2.2206
  106WAT      O  836   1.040   4.999   4.259  0.0256 -0.1940  0.0021
  106WAT     H1  837   1.023   4.907   4.282  1.6647 -0.3621  0.6223
  106WAT     H2  838   0.959   5.044   4.282 -2.0009 -1.8831 -3.0826
  107WAT      O  839   0.652   4.456   3.981  0.2062  0.7200 -0.0735
  107WAT     H1  840   0.572   4.426   3.938 -0.1232 -1.1687  1.6862
  107WAT     H2  841   0.621   4.510   4.054  0.5576  0.8795 -0.0422
  108WAT      O  842   5.154   4.677   3.010 -0.2042 -0.3440 -0.8703
  108WAT     H1  843   5.131   4.759   3.054  0.5195 -0.8139  0.4612
  108WAT     H2  844   5.194   4.704   2.927 -2.4485  0.5451 -1.7303
  109WAT      O  845   5.525   0.480   3.610 -0.0176  0.3544  0.0822
  109WAT     H1  846   5.525   0.575   3.596 -0.1903  0.6767  1.9983
  109WAT     H2  847   5.462   0.467   3.681 -0.0005 -1.2090 -0.1611
  110WAT      O  848   0.030   4.172   2.551  0.5916  0.1712  0.1661
  110WAT     H1  849   0.095   4.104   2.570  4.4948  3.1919 -1.1719
  110WAT     H2  850  -0.015   4.185   2.635 -0.2346 -3.7426  0.5219
  111WAT      O  851   5.378   4.951   2.588 -0.1664 -0.2426 -0.0303
  111WAT     H1  852   5.403   4.997   2.668  2.1809  2.0816 -1.9085
  111WAT     H2  853   5.427   4.869   2.591 -0.1528 -0.2111  0.9027
  112WAT      O  854   6.986   4.110   3.849  0.1965 -0.0031 -0.1363
  112WAT     H1  855   7.075   4.101   3.816  1.0971  1.1831  1.7541
  112WAT     H2  856   6.995   4.109   3.944 -1.7060  0.9515  0.1195
  113WAT      O  857   4.103   5.629   2.895  0.4416 -0.3281 -0.1560
  113WAT     H1  858   4.125   5.688   2.967 -0.9231 -1.2163  1.0608
  113WAT     H2  859   4.027   5.580   2.927 -1.3460  0.4210 -2.8497
  114WAT      O  860   0.155   5.664   2.124  0.0041  0.0189  0.7356
  114WAT     H1  861   0.172   5.639   2.033 -0.6858  2.5510 -0.1670
  114WAT     H2  862   0.222   5.619   2.174  0.2008 -1.6979 -0.9788
  115WAT      O  863   1.413   5.590   3.708 -0.2146  0.4271 -0.5914
  115WAT     H1  864   1.330   5.554   3.740 -0.3926  1.1351 -0.2243
  115WAT     H2  865   1.403   5.685   3.720  1.0555  0.4487  0.4845
  116WAT      O  866   4.971   6.074   3.798  0.5221 -0.2430 -0.4576
  116WAT     H1  867   4.923   6.135   3.854 -0.0779 -1.2450  0.1604
  116WAT     H2  868   4.915   6.066   3.720  0.3027 -0.4527 -0.2810
  117WAT      O  869   3.681   0.783   2.900  0.0714 -0.2089  0.1897
  117WAT     H1  870   3.666   0.792   2.806 -0.3008  1.5743  0.3920
  117WAT     H2  871   3.775   0.798   2.911 -0.1608  1.4022  0.2563
  118WAT      O  872   0.901   1.889   0.527 -0.0882  0.2738 -0.3616
  118WAT     H1  873   0.901   1.931   0.440  0.3496 -0.5567 -0.7702
  118WAT     H2  874   0.990   1.905   0.561 -0.6294  1.6743  0.4805
  119WAT      O  875   6.249   4.766   3.922  0.8109  0.3875 -0.7219
  119WAT     H1  876   6.156   4.775   3.939  0.8928 -0.3212  0.2255
  119WAT     H2  877   6.266   4.672   3.929  1.8446  0.6393  0.6529
  120WAT      O  878   7.255   5.931   3.563 -0.2072  0.0862  0.7057
  120WAT     H1  879   7.163   5.919   3.541 -0.3005 -1.2307  1.6757
  120WAT     H2  880   7.273   5.863   3.628  1.6253 -0.0911  0.0585
  121WAT      O  881   5.862   5.380   1.977  0.4819 -0.1939  0.3647
  121WAT     H1  882   5.855   5.320   2.051  1.2131  0.6073  1.0963
  121WAT     H2  883   5.947   5.423   1.989 -0.1973  1.2573  0.0646
  122WAT      O  884   5.020   4.719   5.341 -0.0685 -0.1437  0.0089
  122WAT     H1  885   5.061   4.651   5.395 -1.4245 -1.1112 -0.1231
  122WAT     H2  886   5.001   4.675   5.258 -0.1964  0.6457 -0.3855
  123WAT      O  887   4.605   0.171   3.544 -0.0197  0.2492 -0.1174
  123WAT     H1  888   4.563   0.253   3.519 -1.4425 -0.1950  0.6291
  123WAT     H2  889   4.568   0.106   3.484  0.3586 -0.0009 -0.0840
  124WAT      O  890   5.015   2.310   5.506 -0.0845 -0.2249  0.6632
  124WAT     H1  891   5.090   2.261   5.540 -0.2408  0.2620  1.7578
  124WAT     H2  892   4.940   2.252   5.520 -0.0135 -0.4197  0.2396
  125WAT      O  893   7.013   5.955   3.160  0.9535  0.2310  0.2916
  125WAT     H1  894   7.099   5.996   3.176 -0.0135  2.0252  1.1880
  125WAT     H2  895   6.999   5.899   3.237  1.4877 -0.4099 -0.0660
  126WAT      O  896   7.365   3.351   4.770  0.4321 -0.3582  0.2174
  126WAT     H1  897   7.287   3.300   4.791 -0.9796  1.2493 -0.9140
  126WAT     H2  898   7.356   3.431   4.822  0.6444  0.4057 -0.8943
  127WAT      O  899   6.854   4.682   3.331 -0.1024 -0.1603  0.3244
  127WAT     H1  900   6.853   4.749   3.399  0.9373  0.0583  0.1313
  127WAT     H2  901   6.944   4.679   3.301 -0.1424 -1.6425  0.3096
  128WAT      O  902   5.887   4.466   2.513 -0.2193 -0.2587  0.4530
  128WAT     H1  903   5.809   4.413   2.497 -0.1266 -0.0264 -0.9460
  128WAT     H2  904   5.958   4.417   2.472 -0.2455  1.1956 -1.5149
  129WAT      O  905   3.995   5.943   2.979  0.0831  0.6129  0.2247
  129WAT     H1  906   3.952   6.028   2.983 -1.3012 -0.0793  0.7820
  129WAT     H2  907   4.000   5.923   2.885  1.0002  1.5620  0.0513
  130WAT      O  908   0.493   4.508   4.219  0.5941 -0.1797  0.7497
  130WAT     H1  909   0.507   4.415   4.236 -1.3907 -0.4601  1.0619
  130WAT     H2  910   0.398   4.516   4.208  0.7838  1.7342  0.2438
  131WAT      O  911   5.767   4.484   2.781 -0.3783 -0.2763 -0.5105
  131WAT     H1  912   5.838   4.488   2.717 -1.1915 -1.1648 -1.5217
  131WAT     H2  913   5.746   4.390   2.788 -0.0971 -0.2394  1.3287
  132WAT      O  914   4.186   5.095   3.209  0.4320 -0.1575  0.1470
  132WAT     H1  915   4.239   5.161   3.253  0.8070 -0.8254  0.7228
  132WAT     H2  916   4.167   5.030   3.278  0.1017 -0.6630 -0.4110
  133WAT      O  917   0.144   4.319   3.634 -0.1608  0.1392 -0.8890
  133WAT     H1  918   0.100   4.239   3.605 -0.6880  0.3827 -0.7787
  133WAT     H2  919   0.146   4.312   3.730 -0.1302  0.2203 -0.8833
  134WAT      O  920   7.285   5.938   4.285 -0.0897  0.0106 -0.5798
  134WAT     H1  921   7.371   5.905   4.312 -0.6812 -3.0300 -1.9747
  134WAT     H2  922   7.288   5.936   4.190 -1.7466 -0.2239 -0.6480
  135WAT      O  923   5.777   5.401   0.840 -0.4270  0.2680 -0.1310
  135WAT     H1  924   5.866   5.408   0.874  0.2703 -1.5866 -1.4235
  135WAT     H2  925   5.730   5.474   0.880  1.3042  0.4558  1.6737
  136WAT      O  926   5.640   4.506   0.571  0.4127 -0.0370  0.1984
  136WAT     H1  927   5.588   4.516   0.492 -1.7991 -0.8682  1.4751
  136WAT     H2  928   5.731   4.502   0.539 -0.4050 -0.6010 -2.2823
  137WAT      O  929   7.289   4.296   2.803 -0.2532 -0.3263  0.6735
  137WAT     H1  930   7.257   4.241   2.874  0.0606  1.0145  1.9122
  137WAT     H2  931   7.227   4.369   2.800 -1.1230 -1.0732 -1.4661
  138WAT      O  932   7.236   5.407   1.857  0.4441 -0.3597  0.6245
  138WAT     H1  933   7.186   5.393   1.938 -0.6832  0.6414  0.1288
  138WAT     H2  934   7.203   5.490   1.822 -2.8914 -2.9708 -3.4891
  139WAT      O  935   4.476   2.348   4.391  0.1639  0.1522  0.2817
  139WAT     H1  936   4.545   2.291   4.358 -1.5706 -1.5466 -0.6393
  139WAT     H2  937   4.491   2.353   4.485  1.2130 -0.6251  0.1651
  140WAT      O  938   4.580   0.229   5.425  0.3150  0.2557 -0.6577
  140WAT     H1  939   4.495   0.209   5.462  0.2126 -0.2710 -1.1774
  140WAT     H2  940   4.643   0.195   5.489  0.1633  1.4784  0.1936
  141WAT      O  941   6.673   5.307   3.244 -0.1501 -0.0045  0.0654
  141WAT     H1  942   6.602   5.246   3.224 -0.2110  0.0275  0.1845
  141WAT     H2  943   6.632   5.376   3.296 -0.1081  0.2146 -0.1941
  142WAT      O  944   4.723   5.146   4.277 -0.3819  0.4336  0.1414
  142WAT     H1  945   4.775   5.075   4.315 -1.5150 -0.8229 -0.6051
  142WAT     H2  946   4.760   5.158   4.189  0.8506  1.9035  0.8069
  143WAT      O  947   5.152   5.118   3.504  0.2713  0.2926  0.2049
  143WAT     H1  948   5.065   5.150   3.527 -0.9798 -1.2794 -1.9790
  143WAT     H2  949   5.157   5.032   3.545  0.2454 -0.1829 -0.7760
  144WAT      O  950   7.099   4.627   3.612  0.1061 -0.3016 -0.4881
  144WAT     H1  951   7.030   4.677   3.569 -1.0671 -0.2952  1.2980
  144WAT     H2  952   7.157   4.694   3.648 -0.1753 -0.2613 -0.1055
  145WAT      O  953   7.406   4.502   3.353 -0.1309 -0.2268  0.9034
  145WAT     H1  954   7.336   4.568   3.352  3.2313  3.7652 -1.0969
  145WAT     H2  955   7.396   4.456   3.269 -0.4251  0.2757  0.6566
  146WAT      O  956   6.510   4.801   2.375  0.1364 -0.0605 -0.2695
  146WAT     H1  957   6.424   4.768   2.349 -0.1796 -1.3360  2.1429
  146WAT     H2  958   6.571   4.744   2.329 -0.3531 -0.7019 -0.1404
  147WAT      O  959   5.638   3.701   2.544 -0.0339  0.5120  1.2588
  147WAT     H1  960   5.650   3.629   2.606 -2.2685 -1.3196 -0.2484
  147WAT     H2  961   5.663   3.663   2.459  0.3280  2.0655  0.6363
  148WAT      O  962   4.406   0.223   4.552  0.0438  0.5816 -0.7421
  148WAT     H1  963   4.347   0.157   4.515 -0.4920  1.7477 -2.0830
  148WAT     H2  964   4.490   0.179   4.560 -0.6779 -0.7293 -0.0535
  149WAT      O  965   0.831   3.931   5.919  0.1482 -0.1637  0.5440
  149WAT     H1  966   0.824   4.026   5.917 -2.4475 -0.2362  1.9727
  149WAT     H2  967   0.901   3.913   5.981  0.7149  0.7986  0.1988
  150WAT      O  968   7.188   4.920   3.580  0.5115 -0.1829  0.3032
  150WAT     H1  969   7.213   4.965   3.499 -0.4851  1.6579  0.9645
  150WAT     H2  970   7.244   4.959   3.647 -0.1117 -0.1962  0.8365
  151WAT      O  971   5.223   4.645   3.296 -0.0470 -0.2790 -0.3130
  151WAT     H1  972   5.178   4.653   3.212 -0.2406 -1.5881 -0.3654
  151WAT     H2  973   5.155   4.661   3.361  0.4684  2.4713 -0.3607
  152WAT      O  974   0.219   4.045   3.895 -0.4150 -0.8658  0.3547
  152WAT     H1  975   0.221   4.043   3.799 -1.7869 -0.3789  0.2863
  152WAT     H2  976   0.278   3.976   3.922  2.4563  0.9799 -0.7845
  153WAT      O  977   1.330   5.634   3.287  0.0892  0.0587 -0.4378
  153WAT     H1  978   1.307   5.566   3.351 -1.3030 -0.6401 -1.6274
  153WAT     H2  979   1.405   5.599   3.240 -0.7005 -0.7642 -1.1323
  154WAT      O  980   6.384   2.478   3.464 -0.2628  0.2084 -0.4054
  154WAT     H1  981   6.351   2.567   3.453 -1.2178  0.0194  0.7428
  154WAT     H2  982   6.307   2.422   3.451  0.0643 -0.3676  0.0928
  155WAT      O  983   7.064   4.945   3.036 -0.8587  0.0936  0.4261
  155WAT     H1  984   7.125   5.016   3.015 -2.1630  1.1470 -0.0090
  155WAT     H2  985   6.985   4.991   3.066 -1.1952 -1.2396  1.6790
  156WAT      O  986   2.919   5.860   2.814 -0.2221 -0.0420 -0.8009
  156WAT     H1  987   2.954   5.948   2.800  0.7005 -0.2535  0.1371
  156WAT     H2  988   2.835   5.874   2.857  0.3039  0.3561  0.1015
  157WAT      O  989   5.470   5.657   1.804  0.3928  0.2801 -0.1494
  157WAT     H1  990   5.545   5.654   1.863  0.6624 -0.2230 -0.5180
  157WAT     H2  991   5.394   5.646   1.861  0.6868 -0.8441  0.0376
  158WAT      O  992   7.203   3.211   5.923  0.2706 -0.0541  0.0643
  158WAT     H1  993   7.280   3.265   5.938 -0.3766  0.3326  2.3089
  158WAT     H2  994   7.142   3.269   5.878  1.1186 -0.2786 -1.4659
  159WAT      O  995   1.420   3.617   4.710  0.1101  0.6513 -0.2237
  159WAT     H1  996   1.342   3.562   4.715 -0.1664  1.0207 -0.3937
  159WAT     H2  997   1.458   3.598   4.625  0.9390 -0.4929  0.3825
  160WAT      O  998   5.068   0.394   4.176 -0.2687 -0.2571  0.7102
  160WAT     H1  999   4.973   0.397   4.185 -0.2247 -0.5638  1.3212
  160WAT     H2 1000   5.093   0.309   4.214 -0.0234 -1.4621 -1.8993
  161WAT      O 1001   5.988   5.773   3.187 -0.0447 -0.3647  0.0485
  161WAT     H1 1002   6.052   5.735   3.247 -0.3756 -0.1582  0.5361
  161WAT     H2 1003   6.008   5.734   3.102  1.4350  0.5082 -0.0446
  162WAT      O 1004   5.661   5.088   3.988  0.1004  0.2488 -0.3323
  162WAT     H1 1005   5.646   5.037   4.067 -1.8353  0.3042 -0.6114
  162WAT     H2 1006   5.615   5.170   4.003  1.4621  1.1137 -0.7120
  163WAT      O 1007   6.501   5.275   3.776 -0.2182 -0.5415 -0.3676
  163WAT     H1 1008   6.471   5.207   3.836  1.6667  1.0284  2.5772
  163WAT     H2 1009   6.436   5.345   3.784  1.0396  0.4989  1.5718
  164WAT      O 1010   4.446   4.529   3.508 -0.0393 -0.1481  0.8896
  164WAT     H1 1011   4.523   4.525   3.452 -0.7438 -1.3792 -0.0413
  164WAT     H2 1012   4.441   4.442   3.548 -0.3362  0.2708  1.7780
  165WAT      O 1013   7.009   0.150   3.087 -0.7469 -0.4314  0.3343
  165WAT     H1 1014   7.058   0.081   3.133  0.4930  0.7453  0.8673
  165WAT     H2 1015   7.050   0.154   3.001  0.3397  0.7228  0.8644
  166WAT      O 1016   5.451   4.946   1.724  0.4119 -0.6853 -0.0596
  166WAT     H1 1017   5.394   5.009   1.682  1.8416 -0.0837 -1.1802
  166WAT     H2 1018   5.539   4.967   1.692  1.0534 -2.6959  0.1857
  167WAT      O 1019   2.988   4.437   1.629  0.5532 -0.1553  0.2351
  167WAT     H1 1020   2.896   4.421   1.612  0.3632 -1.8572  2.3990
  167WAT     H2 1021   3.035   4.372   1.577  0.2698 -1.7610  1.8848
  168WAT      O 1022   3.962   0.544   0.201  0.5027 -0.1535 -0.5123
  168WAT     H1 1023   3.992   0.535   0.291  1.3870  1.6801 -0.5757
  168WAT     H2 1024   3.901   0.618   0.203 -1.8237 -1.9420 -0.9343
  169WAT      O 1025   3.733   4.645   2.287  0.3304  0.0419  0.0768
  169WAT     H1 1026   3.685   4.564   2.271  0.8262 -0.4103  0.8068
  169WAT     H2 1027   3.819   4.616   2.318  0.6543  0.8439 -0.0534
  170WAT      O 1028   5.430   3.471   2.404 -0.6048 -0.2565 -0.1734
  170WAT     H1 1029   5.446   3.377   2.419 -2.8680 -0.8880 -1.2996
  170WAT     H2 1030   5.384   3.500   2.482 -1.9517 -0.6951 -0.7662
  171WAT      O 1031   1.748   5.153   4.218  0.3742 -0.1211 -0.1970
  171WAT     H1 1032   1.676   5.100   4.184 -0.3566  0.5689  0.2309
  171WAT     H2 1033   1.820   5.092   4.230 -0.4432 -1.0060  0.2643
  172WAT      O 1034   5.275   6.007   2.389 -0.2645 -0.2159 -0.3298
  172WAT     H1 1035   5.202   5.964   2.432 -0.2419 -0.4333 -0.5054
  172WAT     H2 1036   5.341   5.938   2.378 -0.4373 -0.2720 -1.0916
  173WAT      O 1037   4.675   5.687   1.959  1.0064 -0.0726 -0.2188
  173WAT     H1 1038   4.643   5.773   1.929 -0.2687 -0.2082  0.6749
  173WAT     H2 1039   4.741   5.708   2.024 -0.1948  0.2854  0.9375
  174WAT      O 1040   5.460   5.097   2.007  0.3156 -0.3002  0.0219
  174WAT     H1 1041   5.472   5.065   1.918 -0.2558  0.8639 -0.4884
  174WAT     H2 1042   5.365   5.104   2.018  0.4003  0.1922  0.4875
  175WAT      O 1043   5.921   5.257   2.608  0.2110 -0.5022  0.1399
  175WAT     H1 1044   5.840   5.220   2.573  0.3743  0.2146 -1.0435
  175WAT     H2 1045   5.891   5.330   2.663 -0.0158 -1.2522  1.0340
  176WAT      O 1046   6.952   4.012   1.734 -0.0242 -0.0162  0.7376
  176WAT     H1 1047   7.042   4.001   1.766  0.4877  0.7796 -0.3623
  176WAT     H2 1048   6.916   4.083   1.788  0.7078  1.0659 -0.1545
  177WAT      O 1049   0.458   4.435   1.432 -0.5260 -0.6003  0.4115
  177WAT     H1 1050   0.544   4.456   1.467 -0.1416 -1.0883 -0.2258
  177WAT     H2 1051   0.399   4.442   1.508 -0.3331  1.9617  0.4089
  178WAT      O 1052   6.796   3.208   0.156  0.0368  0.0212  0.1621
  178WAT     H1 1053   6.884   3.178   0.176  0.4575  0.8068 -0.4671
  178WAT     H2 1054   6.741   3.167   0.223  1.0109  0.3294  1.1839
  179WAT      O 1055   0.273   5.125   3.204  0.2257 -0.2213 -0.4608
  179WAT     H1 1056   0.329   5.202   3.194 -0.3755  0.1095 -1.3942
  179WAT     H2 1057   0.330   5.052   3.178  1.4306 -0.3956  2.2870
  180WAT      O 1058   7.230   4.758   2.366  0.4315  0.3425  0.2466
  180WAT     H1 1059   7.296   4.815   2.405  0.5026  0.6128 -0.2582
  180WAT     H2 1060   7.168   4.818   2.325 -0.4147  0.1151  1.1555
  181WAT      O 1061   7.272   4.669   2.112 -0.1635  0.1258 -0.0892
  181WAT     H1 1062   7.250   4.678   2.204  0.7851  0.3212  0.1289
  181WAT     H2 1063   7.347   4.610   2.111  0.1444  0.5194 -0.6929
  182WAT      O 1064   6.185   4.287   1.260 -0.1575  0.2091  0.2051
  182WAT     H1 1065   6.235   4.313   1.338  0.7478  0.6526 -0.5080
  182WAT     H2 1066   6.222   4.202   1.236 -0.6966 -0.1053  0.4744
  183WAT      O 1067   5.572   5.381   1.550 -0.6062  0.4077 -0.0177
  183WAT     H1 1068   5.477   5.391   1.544 -0.7218 -1.1267 -2.8156
  183WAT     H2 1069   5.584   5.294   1.589 -0.4552 -0.2312 -1.4321
  184WAT      O 1070   3.773   4.436   1.973  0.4460 -0.6966 -0.4649
  184WAT     H1 1071   3.807   4.413   1.886 -0.7944  0.7550 -1.4012
  184WAT     H2 1072   3.795   4.362   2.028  2.0647 -1.2811 -1.8047
  185WAT      O 1073   6.230   4.773   2.301  0.6177  0.4944  0.0332
  185WAT     H1 1074   6.231   4.679   2.282  4.0127  0.5582 -0.7745
  185WAT     H2 1075   6.190   4.812   2.223  1.4920 -0.1514 -0.7620
  186WAT      O 1076   5.237   4.783   1.826 -1.3264 -0.2873 -0.0221
  186WAT     H1 1077   5.308   4.833   1.786 -1.9638 -0.2124 -1.1070
  186WAT     H2 1078   5.158   4.819   1.786 -2.2193  1.3229  2.9358
  187WAT      O 1079   7.069   3.327   1.000 -0.4473  0.1921  0.1569
  187WAT     H1 1080   7.075   3.397   1.065 -2.0349  0.0292  0.5132
  187WAT     H2 1081   7.129   3.259   1.031 -0.5328  0.4828  0.9801
  188WAT      O 1082   4.789   4.668   3.131 -0.2969  0.1585  0.4762
  188WAT     H1 1083   4.762   4.738   3.071 -1.7718  0.9589  1.9865
  188WAT     H2 1084   4.833   4.604   3.075  1.6646  2.5449 -0.8825
  189WAT      O 1085   5.266   3.606   2.570 -0.0222 -0.1473  0.2284
  189WAT     H1 1086   5.226   3.619   2.656  1.0242  0.2967  0.6574
  189WAT     H2 1087   5.304   3.691   2.548 -0.1500 -0.2992 -0.6111
  190WAT      O 1088   5.605   4.514   1.147 -0.3224 -0.2532  0.5222
  190WAT     H1 1089   5.631   4.555   1.230  2.5547  0.6043 -0.6973
  190WAT     H2 1090   5.646   4.427   1.149 -0.4983 -0.3519  0.0925
  191WAT      O 1091   0.154   4.205   1.022  0.0317  0.0949 -0.2721
  191WAT     H1 1092   0.111   4.211   1.107  1.3122  2.2409  0.3115
  191WAT     H2 1093   0.163   4.111   1.006 -3.3875 -0.4406  0.2481
  192WAT      O 1094   6.328   0.659   2.217  0.3901 -0.5820 -0.5277
  192WAT     H1 1095   6.287   0.732   2.170  0.1666  0.4635  1.1901
  192WAT     H2 1096   6.256   0.601   2.240 -0.1170  0.7946  1.6909
  193WAT      O 1097   7.095   4.412   3.086  0.0701 -0.0417 -0.2396
  193WAT     H1 1098   7.116   4.483   3.146  1.4700 -0.3076 -0.3677
  193WAT     H2 1099   7.108   4.450   2.999  0.6256 -0.3782 -0.3112
  194WAT      O 1100   6.136   4.934   1.617  0.4792 -0.0432  0.2695
  194WAT     H1 1101   6.137   4.843   1.588  0.7873 -0.7034  2.2301
  194WAT     H2 1102   6.224   4.966   1.600  0.8555 -0.6290  1.0806
  195WAT      O 1103   0.445   5.528   4.019  0.5897 -0.0310 -0.3233
  195WAT     H1 1104   0.394   5.603   4.048  0.1877 -0.7434  0.8545
  195WAT     H2 1105   0.518   5.521   4.081  1.0830 -0.1399 -0.8947
  196WAT      O 1106   5.667   4.307   2.451 -0.2118  0.0856 -0.3749
  196WAT     H1 1107   5.696   4.240   2.389 -1.8750 -0.9542 -0.0765
  196WAT     H2 1108   5.596   4.352   2.406 -0.0506  0.7128 -0.0143
  197WAT      O 1109   3.128   1.203   0.740 -0.2469 -0.1204 -0.5970
  197WAT     H1 1110   3.139   1.212   0.646 -0.1005 -1.0753 -0.6795
  197WAT     H2 1111   3.043   1.160   0.751  0.9007 -2.5237 -0.4495
  198WAT      O 1112   0.184   5.323   3.735 -0.4262  0.5908  0.3410
  198WAT     H1 1113   0.151   5.389   3.796  1.4788  1.8099  0.1452
  198WAT     H2 1114   0.250   5.370   3.683  1.1252 -1.5223  0.2998
  199WAT      O 1115   4.593   5.974   1.511  0.0967  0.0482  0.3575
  199WAT     H1 1116   4.685   5.999   1.513  0.4140 -0.8719 -1.0481
  199WAT     H2 1117   4.553   6.034   1.449  0.3878 -1.2998 -1.2322
  200WAT      O 1118   6.411   4.000   2.263  0.1712  0.0428  0.3696
  200WAT     H1 1119   6.354   4.013   2.187  2.6823 -2.1957 -2.1271
  200WAT     H2 1120   6.373   3.925   2.308 -0.3310  0.2570  0.3136
  201WAT      O 1121   4.749   0.709   2.913 -0.2085 -0.2507 -0.1692
  201WAT     H1 1122   4.757   0.633   2.856 -0.1164 -0.3266 -0.0541
  201WAT     H2 1123   4.811   0.773   2.877 -0.3891 -0.1752 -0.3522
  202WAT      O 1124   5.827   4.253   2.086 -0.0274 -0.3865  0.2059
  202WAT     H1 1125   5.811   4.159   2.091 -1.6932 -0.0509  3.0576
  202WAT     H2 1126   5.749   4.288   2.045 -0.8726 -0.0039  2.0529
  203WAT      O 1127   4.716   5.194   1.015  0.0432 -0.2752 -0.6430
  203WAT     H1 1128   4.621   5.184   1.015 -0.0184  0.1598 -1.6956
  203WAT     H2 1129   4.748   5.114   1.057 -0.7500 -1.0065 -1.3860
  204WAT      O 1130   5.170   1.189   3.274 -0.0544  0.9292 -0.5216
  204WAT     H1 1131   5.206   1.235   3.198 -0.9754  2.9681  0.1901
  204WAT     H2 1132   5.246   1.169   3.328  0.6024 -0.4653 -1.9047
  205WAT      O 1133   3.635   0.485   2.845  0.1064 -0.8819  0.0326
  205WAT     H1 1134   3.715   0.518   2.887 -0.0602 -0.4230 -0.0025
  205WAT     H2 1135   3.583   0.450   2.917 -0.1706 -0.1128  0.2116
  206WAT      O 1136   5.737   5.720   1.401  0.0583  0.0676 -0.1047
  206WAT     H1 1137   5.730   5.776   1.478  0.7381 -0.2523  0.1966
  206WAT     H2 1138   5.697   5.637   1.428 -0.3004  0.1672 -0.3184
  207WAT      O 1139   6.817   3.806   1.634 -0.3620  0.5189  0.1195
  207WAT     H1 1140   6.862   3.876   1.682 -1.4095  0.8324  0.6684
  207WAT     H2 1141   6.757   3.768   1.698 -0.9809  0.2044 -0.6375
  208WAT      O 1142   5.823   4.493   1.577 -0.4044  0.0859  0.1668
  208WAT     H1 1143   5.802   4.402   1.596 -2.8754  0.9927  2.4396
  208WAT     H2 1144   5.889   4.517   1.642 -0.0507  0.0578 -0.1743
  209WAT      O 1145   4.955   0.601   1.378  0.1293 -0.4586  0.1248
  209WAT     H1 1146   4.939   0.525   1.435 -0.7627 -0.9025 -0.6899
  209WAT     H2 1147   4.902   0.584   1.301 -2.0089  2.1213  0.8898
  210WAT      O 1148   3.726   6.021   4.045  0.1904 -0.3069  0.0167
  210WAT     H1 1149   3.738   6.010   4.140  1.6069 -0.7839 -0.1853
  210WAT     H2 1150   3.633   6.004   4.031  0.0697 -0.8312  1.2558
  211WAT      O 1151   5.211   4.670   2.072  0.6100  0.9228  0.4214
  211WAT     H1 1152   5.243   4.726   2.001  1.3194  0.5157  0.4220
  211WAT     H2 1153   5.125   4.640   2.042  1.4198 -0.2348 -0.8187
  212WAT      O 1154   0.359   0.361   3.822  0.1534 -0.0470 -0.2020
  212WAT     H1 1155   0.453   0.344   3.817  0.4442  1.5671 -4.5652
  212WAT     H2 1156   0.352   0.454   3.841 -0.4831  0.1383 -1.2799
  213WAT      O 1157   4.221   4.085   0.441 -0.5027 -0.6712  0.3621
  213WAT     H1 1158   4.173   4.015   0.397 -1.4643 -0.0983  0.4743
  213WAT     H2 1159   4.180   4.093   0.527  0.4140 -0.7981  0.8229
  214WAT      O 1160   6.518   3.527   5.966  0.0362 -0.3215 -0.3116
  214WAT     H1 1161   6.497   3.621   5.972  0.0947 -0.3594  0.8626
  214WAT     H2 1162   6.439   3.488   5.929  0.5056  0.3418 -2.0965
  215WAT      O 1163   6.237   4.821   2.579  0.2063 -0.1570 -0.1845
  215WAT     H1 1164   6.165   4.765   2.609  1.8232 -1.8699  0.7251
  215WAT     H2 1165   6.216   4.840   2.488 -2.0276  0.4903  0.3944
  216WAT      O 1166   6.487   4.402   2.252 -0.0491 -0.2149  0.3658
  216WAT     H1 1167   6.393   4.411   2.269 -0.1907 -0.6729 -0.1203
  216WAT     H2 1168   6.520   4.354   2.328 -0.6272 -2.0268 -0.4695
  217WAT      O 1169   7.320   4.205   1.832  0.1464 -0.2067  0.2975
  217WAT     H1 1170   7.241   4.154   1.813  1.2456 -1.1915 -2.0298
  217WAT     H2 1171   7.329   4.202   1.927 -1.9177 -1.1269  0.5024
  218WAT      O 1172   5.835   4.069   5.895 -0.0780  0.5785  0.4125
  218WAT     H1 1173   5.794   4.079   5.981  0.2901  1.8457  0.4675
  218WAT     H2 1174   5.921   4.032   5.914  0.5673  2.1545  0.7691
  219WAT      O 1175   5.594   0.550   3.169 -0.1247  0.1763 -0.1844
  219WAT     H1 1176   5.639   0.558   3.254  0.2183  1.1593 -0.4431
  219WAT     H2 1177   5.507   0.585   3.185 -0.0097  0.5080 -0.2672
  220WAT      O 1178   6.753   5.418   2.111  0.4918  0.5497 -0.1798
  220WAT     H1 1179   6.776   5.510   2.127  0.9074  0.4771 -0.3522
  220WAT     H2 1180   6.761   5.377   2.197 -1.0744  0.9491  0.2045
  221WAT      O 1181   6.770   3.695   0.667  0.2490 -0.1666  0.0100
  221WAT     H1 1182   6.749   3.786   0.645  0.8862 -0.0248 -0.0262
  221WAT     H2 1183   6.753   3.689   0.761 -1.1930 -0.4172 -0.2321
  222WAT      O 1184   3.591   1.094   5.015  0.3934 -0.1729  0.3513
  222WAT     H1 1185   3.595   1.107   4.920  0.7535 -2.4801 -0.0078
  222WAT     H2 1186   3.507   1.052   5.030  1.1537 -1.6200  0.7600
  223WAT      O 1187   6.220   3.520   3.855 -0.1770  0.2794  0.1615
  223WAT     H1 1188   6.298   3.469   3.876 -0.3512 -0.6435 -1.2173
  223WAT     H2 1189   6.148   3.456   3.859 -0.8732  1.1002  1.3605
  224WAT      O 1190   4.002   5.903   2.321 -0.3599  0.5518 -0.5003
  224WAT     H1 1191   3.936   5.923   2.387  0.4821  0.7053  0.3155
  224WAT     H2 1192   3.955   5.851   2.255 -1.6575  1.9737 -0.7421
  225WAT      O 1193   6.314   1.805   2.579 -0.4125 -0.0946 -0.1598
  225WAT     H1 1194   6.254   1.864   2.533 -0.8614 -1.1934 -1.0207
  225WAT     H2 1195   6.260   1.767   2.649 -1.0545 -1.8326 -1.5405
  226WAT      O 1196   0.059   6.012   3.404  0.1481  0.5444 -0.4352
  226WAT     H1 1197   0.043   6.106   3.415 -0.1834  0.5248 -0.7359
  226WAT     H2 1198  -0.001   5.970   3.465  0.3537  0.5266 -0.2421
  227WAT      O 1199   2.879   5.234   0.434  0.1829 -0.1109  0.7435
  227WAT     H1 1200   2.869   5.140   0.418  0.6583 -0.3103  1.5913
  227WAT     H2 1201   2.793   5.271   0.410  0.2838 -0.6184 -0.4950
  228WAT      O 1202   0.711   4.489   2.783  0.8892  0.6780  0.4754
  228WAT     H1 1203   0.803   4.463   2.790  0.8639  0.6862  0.9013
  228WAT     H2 1204   0.667   4.413   2.745  1.2301  1.0313 -0.6326
  229WAT      O 1205   0.304   3.766   0.327 -0.4551  0.9316  0.1477
  229WAT     H1 1206   0.233   3.761   0.264 -1.3823 -0.1670  1.2291
  229WAT     H2 1207   0.310   3.859   0.349 -0.0489  1.3449 -1.5692
  230WAT      O 1208   7.365   4.323   3.147  0.4511  0.1528 -0.3228
  230WAT     H1 1209   7.275   4.303   3.172 -0.1514  0.4409 -2.1035
  230WAT     H2 1210   7.409   4.238   3.143 -0.2017 -0.1585 -1.0334
  231WAT      O 1211   6.339   0.462   2.718 -0.6109  0.5996 -0.3763
  231WAT     H1 1212   6.334   0.370   2.692 -0.6287  0.4899 -0.0029
  231WAT     H2 1213   6.366   0.509   2.640  0.9494  0.0737 -0.1760
  232WAT      O 1214   6.782   0.462   2.688  0.1739  0.0069  0.3933
  232WAT     H1 1215   6.785   0.557   2.699 -0.9246  0.2799 -1.3522
  232WAT     H2 1216   6.719   0.432   2.754  0.3272  0.5093  0.7758
  233WAT      O 1217   4.837   0.369   1.503 -0.4429 -0.3285 -0.5330
  233WAT     H1 1218   4.859   0.304   1.570  0.1892  0.6965  0.2871
  233WAT     H2 1219   4.756   0.336   1.463 -0.6409 -1.1394  0.4971
  234WAT      O 1220   0.989   4.678   3.524  0.2040 -0.2955  0.2229
  234WAT     H1 1221   1.008   4.771   3.538  0.2859 -0.0092 -1.5475
  234WAT     H2 1222   0.894   4.673   3.531  0.0227  0.2824 -1.3706
  235WAT      O 1223   6.725   0.160   2.684 -0.9590  0.1368 -0.4206
  235WAT     H1 1224   6.763   0.091   2.630 -1.2270  0.7291 -1.3867
  235WAT     H2 1225   6.768   0.240   2.655 -0.4153  0.3563  0.9182
  236WAT      O 1226   6.721   5.012   2.100 -0.1796 -0.7187 -0.2285
  236WAT     H1 1227   6.676   4.958   2.035 -1.2044  0.3112 -0.4202
  236WAT     H2 1228   6.814   4.997   2.084 -0.4367 -1.3415 -1.1958
  237WAT      O 1229   3.694   3.913   0.123 -0.0433 -0.7338 -0.0729
  237WAT     H1 1230   3.701   3.836   0.067 -1.9861 -0.3832 -0.8755
  237WAT     H2 1231   3.679   3.986   0.062 -0.4854 -0.0812  0.7866
  238WAT      O 1232   4.775   4.055   2.663  0.0269 -0.0484  0.4821
  238WAT     H1 1233   4.690   4.069   2.705  0.3088 -0.1238  1.0787
  238WAT     H2 1234   4.834   4.117   2.705 -0.1363  1.3472 -1.2387
  239WAT      O 1235   5.655   3.547   2.300  0.6450 -0.2588 -0.4147
  239WAT     H1 1236   5.568   3.521   2.330  0.2105 -0.5366 -1.8139
  239WAT     H2 1237   5.668   3.496   2.220  1.9302  0.0800 -0.4387
  240WAT      O 1238   0.000   6.107   3.707  0.0360  0.0456 -0.5087
  240WAT     H1 1239  -0.072   6.080   3.651  0.8278  0.6507 -1.8653
  240WAT     H2 1240  -0.029   6.190   3.745 -1.5229 -1.5117  2.0134
  241WAT      O 1241   3.339   0.096   0.742  0.2538 -0.5456 -0.5375
  241WAT     H1 1242   3.370   0.126   0.657  2.9300 -0.4031  0.3832
  241WAT     H2 1243   3.351   0.001   0.740 -2.9334 -1.0445 -1.4490
  242WAT      O 1244   5.497   2.079   5.819  0.5284  0.1250 -0.1682
  242WAT     H1 1245   5.464   2.002   5.773 -1.3648  0.5503  0.3993
  242WAT     H2 1246   5.556   2.120   5.756  1.0410 -1.4109 -0.7271
  243WAT      O 1247   5.926   4.613   3.092  0.6830 -0.7421 -0.2545
  243WAT     H1 1248   5.927   4.554   3.017  0.3361 -1.1747  0.0742
  243WAT     H2 1249   6.008   4.662   3.086  1.2690 -1.6955 -0.1854
  244WAT      O 1250   3.759   1.263   0.339  0.3546 -0.0698  0.1147
  244WAT     H1 1251   3.667   1.238   0.349  0.5126 -1.0379 -0.7546
  244WAT     H2 1252   3.757   1.359   0.344 -0.5751 -0.1104  1.0024
  245WAT      O 1253   5.849   4.232   5.681 -0.1203  0.1726  0.2919
  245WAT     H1 1254   5.847   4.311   5.735 -0.3079 -0.5734  1.3950
  245WAT     H2 1255   5.821   4.162   5.739  1.0587 -0.9001 -0.3793
  246WAT      O 1256   6.163   3.191   4.747  0.5871  0.0470  0.3138
  246WAT     H1 1257   6.102   3.154   4.811  0.7084  0.5345  0.7131
  246WAT     H2 1258   6.216   3.117   4.719  0.6638 -0.1334  0.9262
  247WAT      O 1259   0.398   2.508   1.943  0.4085 -0.1808 -0.2848
  247WAT     H1 1260   0.490   2.482   1.937  0.2290 -0.9456  0.2094
  247WAT     H2 1261   0.368   2.511   1.852  0.9633  0.2559 -0.4622
  248WAT      O 1262   6.426   2.921   3.876  0.3767  0.1977  0.1489
  248WAT     H1 1263   6.427   2.833   3.838  1.6657  1.1614 -2.3090
  248WAT     H2 1264   6.518   2.941   3.893  0.0971  1.0791  0.7118
  249WAT      O 1265   0.023   3.765   1.726  0.0998  0.2332  0.2043
  249WAT     H1 1266   0.091   3.812   1.679  0.6703  0.2595  1.0337
  249WAT     H2 1267   0.052   3.673   1.725  0.8319  0.4281  1.6810
  250WAT      O 1268   6.325   0.265   2.313  0.4259  0.5468  0.1837
  250WAT     H1 1269   6.280   0.343   2.344 -0.2197  0.2708 -0.0415
  250WAT     H2 1270   6.257   0.198   2.310  1.0127 -0.0847  0.5876
  251WAT      O 1271   6.747   5.335   3.644  0.0895 -0.1475 -0.3071
  251WAT     H1 1272   6.671   5.308   3.695  0.4376  1.6076  1.2764
  251WAT     H2 1273   6.767   5.260   3.588 -2.2559 -0.9658 -0.1396
  252WAT      O 1274   1.082   4.820   4.000 -0.8440  0.5742  0.6048
  252WAT     H1 1275   1.051   4.813   4.090  0.8337 -0.3927  1.1427
  252WAT     H2 1276   1.005   4.803   3.947 -1.7782  0.7665  1.8507
  253WAT      O 1277   5.779   4.245   1.710 -0.0674  0.7446  0.1326
  253WAT     H1 1278   5.725   4.276   1.783 -2.0187 -0.7387 -0.5807
  253WAT     H2 1279   5.840   4.183   1.750 -1.6216 -0.6273  0.4603
  254WAT      O 1280   6.750   5.565   2.898  0.1138  0.0543  0.1536
  254WAT     H1 1281   6.734   5.574   2.992 -0.8194  1.5453 -0.1161
  254WAT     H2 1282   6.666   5.584   2.858  0.4709 -0.6970 -0.9915
  255WAT      O 1283   7.251   2.990   1.990  0.0993  0.2987  0.1377
  255WAT     H1 1284   7.214   3.036   2.065 -0.4842  0.8381 -0.4670
  255WAT     H2 1285   7.175   2.967   1.936  0.4618 -0.5398 -0.0442
  256WAT      O 1286   0.402   3.716   0.919 -0.1438  0.1429 -0.6592
  256WAT     H1 1287   0.428   3.640   0.970  0.4928  0.1074 -1.0123
  256WAT     H2 1288   0.328   3.686   0.866  0.4145 -0.3875 -1.1584
  257WAT      O 1289   1.766   4.377   2.919  0.1668  0.5636  0.1310
  257WAT     H1 1290   1.828   4.376   2.992  0.8055 -0.4204 -0.4029
  257WAT     H2 1291   1.773   4.290   2.880 -0.6059  0.8724 -0.7389
  258WAT      O 1292   6.150   5.196   2.505 -0.1679  0.1234  0.6835
  258WAT     H1 1293   6.108   5.181   2.421  0.4060 -1.1560  0.5999
  258WAT     H2 1294   6.079   5.218   2.565 -0.6633  0.3101  0.0325
  259WAT      O 1295   0.690   3.964   0.879  0.1498  0.0657  0.2320
  259WAT     H1 1296   0.598   3.991   0.884  0.4245  0.9146  0.8229
  259WAT     H2 1297   0.735   4.022   0.940  1.1092 -0.2441 -0.1764
  260WAT      O 1298   6.886   4.345   0.998  0.1365  0.5757 -0.1552
  260WAT     H1 1299   6.867   4.269   1.054 -0.3560  0.2105 -0.8129
  260WAT     H2 1300   6.950   4.313   0.935 -2.3194 -0.2244 -2.4007
  261WAT      O 1301   6.820   4.728   1.038  0.1829 -0.0957 -0.5413
  261WAT     H1 1302   6.911   4.756   1.029 -0.0573  0.7101 -0.5258
  261WAT     H2 1303   6.784   4.785   1.106 -0.7033  0.5280 -1.5064
  262WAT      O 1304   5.681   3.212   2.281 -0.2555  0.1560  0.2233
  262WAT     H1 1305   5.721   3.261   2.352  1.8943 -1.6065  0.3379
  262WAT     H2 1306   5.692   3.268   2.204 -0.0129  0.8703  0.7703
  263WAT      O 1307   6.751   4.395   1.615 -0.2394 -0.2786  0.2269
  263WAT     H1 1308   6.835   4.350   1.617  1.7954  3.1690  1.1703
  263WAT     H2 1309   6.762   4.470   1.674 -3.3890  1.3069 -0.9340
  264WAT      O 1310   5.286   3.813   3.052  0.4163  0.3296 -0.5351
  264WAT     H1 1311   5.284   3.718   3.066 -4.3090  0.2824 -0.1665
  264WAT     H2 1312   5.283   3.823   2.957 -0.0906  0.0615 -0.5513
  265WAT      O 1313   7.102   0.027   4.194  0.3080 -0.7868 -0.2672
  265WAT     H1 1314   7.067   0.071   4.272  0.7114  0.5487 -0.8019
  265WAT     H2 1315   7.159  -0.041   4.228  0.5024 -0.1952  0.6255
  266WAT      O 1316   3.306   1.000   1.716  0.0210 -0.3120 -0.0514
  266WAT     H1 1317   3.305   1.084   1.761 -0.3250 -0.9723  1.2298
  266WAT     H2 1318   3.346   0.939   1.778  0.5113 -1.0522 -1.0530
  267WAT      O 1319   4.088   0.855   5.637  0.3274  0.4074 -0.6503
  267WAT     H1 1320   4.119   0.944   5.652 -2.5976  1.3493  0.6309
  267WAT     H2 1321   4.051   0.858   5.548 -1.8131  1.2323  0.2031
  268WAT      O 1322   6.171   3.728   1.428  0.5943  0.3447  0.4256
  268WAT     H1 1323   6.154   3.822   1.416  0.1039  0.2070 -0.0266
  268WAT     H2 1324   6.104   3.685   1.375  1.5618 -0.2496 -0.3611
  269WAT      O 1325   5.878   3.324   0.398  0.1431  0.4800  0.3190
  269WAT     H1 1326   5.809   3.382   0.431  0.1923  0.1543  1.0105
  269WAT     H2 1327   5.856   3.312   0.305 -0.1070  1.2556  0.2640
  270WAT      O 1328   3.110   4.900   0.393 -0.3183  0.0314  0.4529
  270WAT     H1 1329   3.079   4.924   0.306 -0.8984 -0.1761  0.5988
  270WAT     H2 1330   3.132   4.807   0.386 -1.1879 -0.2090  0.7449
  271WAT      O 1331   5.542   4.078   5.358 -0.3735  0.0680  0.0357
  271WAT     H1 1332   5.488   4.149   5.323 -1.6839 -0.3486  1.0983
  271WAT     H2 1333   5.590   4.045   5.283 -1.3218  0.7133 -0.8849
  272WAT      O 1334   4.969   4.998   1.243  0.0760 -0.0499  0.1641
  272WAT     H1 1335   4.877   4.996   1.216  0.5261 -1.3291 -1.4502
  272WAT     H2 1336   5.018   4.972   1.164  1.8768  1.1841  0.8060
  273WAT      O 1337   5.688   5.129   2.496  0.5941 -0.6211  0.0042
  273WAT     H1 1338   5.606   5.176   2.513  1.5239  0.9916  0.2514
  273WAT     H2 1339   5.680   5.098   2.406  0.4654  1.1957 -0.6484
  274WAT      O 1340   5.658   5.819   1.164 -0.2302 -0.2704  0.6339
  274WAT     H1 1341   5.634   5.902   1.204  0.3714 -0.1978  0.8567
  274WAT     H2 1342   5.691   5.766   1.237 -1.8101 -1.1794  0.7310
  275WAT      O 1343   3.955   0.599   0.629  0.0717  0.0014  0.0296
  275WAT     H1 1344   4.006   0.580   0.551  2.4165  0.1104  1.4413
  275WAT     H2 1345   3.909   0.517   0.648 -2.0254  0.4830 -2.3877
  276WAT      O 1346   3.700   5.864   5.311  0.3617 -0.8488 -0.0741
  276WAT     H1 1347   3.727   5.791   5.367 -1.6047 -0.7380  1.1168
  276WAT     H2 1348   3.753   5.854   5.232  1.7959 -2.1890  0.9875
  277WAT      O 1349   3.969   5.337   0.712  0.0548  0.0394  0.9195
  277WAT     H1 1350   3.962   5.242   0.723  1.6943  0.0387  2.5186
  277WAT     H2 1351   4.063   5.352   0.698 -0.1849  1.4265  0.6628
  278WAT      O 1352   5.484   5.947   1.339  0.0975 -0.1427 -0.3238
  278WAT     H1 1353   5.536   5.997   1.402  1.3376 -1.1274 -0.5349
  278WAT     H2 1354   5.411   5.911   1.391  1.7166 -1.9007  0.8755
  279WAT      O 1355   4.146   0.527   0.444  0.6466  0.6157  0.0221
  279WAT     H1 1356   4.209   0.595   0.425  3.0666 -1.4316  0.2360
  279WAT     H2 1357   4.194   0.464   0.498 -1.4684 -1.2591 -0.1293
  280WAT      O 1358   4.822   5.340   0.356  0.2509 -0.7269  0.3567
  280WAT     H1 1359   4.852   5.267   0.301 -0.6241  0.2317 -1.5029
  280WAT     H2 1360   4.867   5.417   0.320 -1.7339  0.2103 -0.2969
  281WAT      O 1361   5.449   4.737   1.500 -0.1317  0.3238 -0.0336
  281WAT     H1 1362   5.458   4.808   1.437 -0.1634  1.0228  0.7400
  281WAT     H2 1363   5.463   4.778   1.586  0.5705 -0.7268  0.3792
  282WAT      O 1364   4.132   5.378   0.246  0.1613  0.1910  0.3880
  282WAT     H1 1365   4.043   5.371   0.278  0.1998  3.0685  1.4333
  282WAT     H2 1366   4.187   5.353   0.320  0.1937  2.6526  1.2837
  283WAT      O 1367   4.560   4.325   0.319 -0.3321  0.3574 -0.1390
  283WAT     H1 1368   4.611   4.320   0.239 -0.8675 -1.5055 -0.4216
  283WAT     H2 1369   4.618   4.369   0.382  0.1003  1.8231 -1.5049
  284WAT      O 1370   5.258   4.862   4.782 -0.1321  0.2936 -0.1255
  284WAT     H1 1371   5.352   4.866   4.797 -0.3830  1.6595  1.5054
  284WAT     H2 1372   5.220   4.856   4.870 -1.6203  2.2930 -0.5501
  285WAT      O 1373   5.191   5.855   1.331 -0.3899 -0.4339 -0.0224
  285WAT     H1 1374   5.103   5.823   1.351  0.3048 -0.9910  2.4885
  285WAT     H2 1375   5.243   5.776   1.318  0.1686 -0.1842  0.6350
  286WAT      O 1376   2.199   3.983   2.711 -0.0143  0.1441  0.0449
  286WAT     H1 1377   2.283   4.015   2.746  0.8349 -0.6828 -1.1565
  286WAT     H2 1378   2.140   3.985   2.787  1.2297  0.2543  1.0545
  287WAT      O 1379   3.858   4.431   1.685 -0.1188  0.0044  0.0781
  287WAT     H1 1380   3.837   4.522   1.661  0.4136  0.3211  0.7897
  287WAT     H2 1381   3.775   4.385   1.676 -0.6666  0.8071  0.8081
  288WAT      O 1382   5.058   0.035   1.049  0.0918 -0.2932 -0.2721
  288WAT     H1 1383   5.102   0.067   0.970 -0.1163 -0.8165 -0.6088
  288WAT     H2 1384   5.113  -0.037   1.080  0.9437  0.8355  0.8965
  289WAT      O 1385   3.552   1.623   0.119  0.7835 -0.2701  0.6543
  289WAT     H1 1386   3.519   1.546   0.074  1.6873 -1.0790  1.3214
  289WAT     H2 1387   3.562   1.689   0.050  0.4078 -0.8843 -0.0007
  290WAT      O 1388   5.782   0.891   3.194  0.6930 -0.0319 -0.3032
  290WAT     H1 1389   5.748   0.862   3.109 -1.1507 -0.5662  0.5560
  290WAT     H2 1390   5.840   0.820   3.222  1.2162  0.0924 -1.0595
  291WAT      O 1391   3.690   5.747   5.681 -0.1998 -0.0017 -0.6888
  291WAT     H1 1392   3.650   5.809   5.741 -0.6817 -1.6593  0.8172
  291WAT     H2 1393   3.773   5.724   5.723  0.6460  0.6613 -1.9416
  292WAT      O 1394   5.526   4.143   2.265 -0.0188 -0.2612  0.1889
  292WAT     H1 1395   5.466   4.184   2.327 -2.6120  0.5298 -2.5801
  292WAT     H2 1396   5.536   4.053   2.296  0.4381  0.5760  2.7415
  293WAT      O 1397   3.564   1.655   5.831 -0.1762 -0.2223 -0.0908
  293WAT     H1 1398   3.475   1.691   5.830 -0.6677 -1.2544  2.0468
  293WAT     H2 1399   3.555   1.568   5.793  0.5852  0.8282 -2.9557
  294WAT      O 1400   3.945   1.114   1.344 -0.3208  0.2672  0.2320
  294WAT     H1 1401   4.027   1.114   1.294 -1.9029 -0.9035 -2.6598
  294WAT     H2 1402   3.930   1.022   1.364 -0.4471  0.5845  1.6604
  295WAT      O 1403   2.899   0.104   0.880 -0.3208 -0.2857 -0.1392
  295WAT     H1 1404   2.888   0.114   0.974  2.5253  0.1787  0.2422
  295WAT     H2 1405   2.902   0.010   0.866  1.5279 -0.3989  0.6604
  296WAT      O 1406   3.731   5.545   5.048  0.4666 -0.2321  0.0836
  296WAT     H1 1407   3.799   5.488   5.012  1.4374  0.6803  0.4216
  296WAT     H2 1408   3.650   5.497   5.034  1.0227 -0.7451 -1.5724
  297WAT      O 1409   4.021   0.402   1.718  0.3594 -0.7645  0.5014
  297WAT     H1 1410   4.108   0.435   1.736  1.3613 -2.3517 -1.0804
  297WAT     H2 1411   4.021   0.385   1.624 -2.7002  2.0382 -0.1950
  298WAT      O 1412   5.485   2.723   0.849  0.4505 -0.4392 -0.1489
  298WAT     H1 1413   5.417   2.770   0.898 -0.1482 -0.4524 -0.9433
  298WAT     H2 1414   5.560   2.721   0.908 -0.1939 -0.3003  0.6937
  299WAT      O 1415   6.932   3.144   1.318  0.2284 -0.4640  0.3108
  299WAT     H1 1416   6.877   3.157   1.395  1.6515 -0.6519  1.3931
  299WAT     H2 1417   6.919   3.052   1.295 -1.7134  0.0398 -0.9418
  300WAT      O 1418   4.138   1.899   2.014  0.5710  0.6167 -0.1377
  300WAT     H1 1419   4.080   1.971   1.990 -0.1569  0.3166  0.6643
  300WAT     H2 1420   4.100   1.864   2.094  1.6827  0.1949  0.2179
  301WAT      O 1421   4.243   5.799   3.049 -0.5219  0.5509  0.3669
  301WAT     H1 1422   4.267   5.854   2.974  2.3828  0.7715  1.3171
  301WAT     H2 1423   4.188   5.856   3.103 -0.8829  1.1208 -0.5671
  302WAT      O 1424   4.371   0.550   0.925 -0.0334  0.2524 -0.1721
  302WAT     H1 1425   4.364   0.645   0.932  2.0645  0.4512 -0.0932
  302WAT     H2 1426   4.402   0.534   0.835  2.4846 -0.0619  0.6519
  303WAT      O 1427   7.076   4.405   2.264  0.5127  0.3200  0.1336
  303WAT     H1 1428   7.170   4.396   2.281  0.1164 -0.0156  2.5254
  303WAT     H2 1429   7.037   4.325   2.300 -0.7098  0.4735 -0.7705
  304WAT      O 1430   4.537   0.656   1.256  0.1990 -0.5366  0.0347
  304WAT     H1 1431   4.599   0.704   1.311 -0.5265  0.6655 -0.1514
  304WAT     H2 1432   4.521   0.714   1.181 -0.5318 -1.1740 -0.3253
  305WAT      O 1433   5.384   4.784   0.663  0.1230 -0.0841  0.1234
  305WAT     H1 1434   5.393   4.818   0.574 -0.9890  1.5429  0.5990
  305WAT     H2 1435   5.328   4.707   0.654  0.8213 -0.5082 -0.6900
  306WAT      O 1436   0.057   4.670   2.487  0.0346 -0.2103 -0.8006
  306WAT     H1 1437   0.050   4.763   2.506 -1.0674 -0.2066 -1.1281
  306WAT     H2 1438  -0.033   4.638   2.495  0.3792 -1.2211 -0.8190
  307WAT      O 1439   5.977   4.690   4.964  0.2625  0.1805 -0.3302
  307WAT     H1 1440   5.895   4.666   5.007  0.6327 -1.3603 -0.4254
  307WAT     H2 1441   6.042   4.629   5.000  0.4680 -1.7302 -3.5251
  308WAT      O 1442   4.426   5.147   0.377  0.0261  0.3751 -0.6550
  308WAT     H1 1443   4.349   5.135   0.433 -0.2562  0.9549 -0.9133
  308WAT     H2 1444   4.461   5.058   0.365 -0.5907  0.1082 -0.5225
  309WAT      O 1445   7.126   4.031   0.658 -0.4167 -0.2422  0.2799
  309WAT     H1 1446   7.215   3.995   0.662 -0.6499 -1.4578 -2.6914
  309WAT     H2 1447   7.069   3.955   0.651 -1.2769  0.5320 -2.1130
  310WAT      O 1448   0.826   3.486   1.201  0.3895 -0.2281 -0.6201
  310WAT     H1 1449   0.808   3.567   1.153 -1.6285  0.0791  0.5228
  310WAT     H2 1450   0.740   3.448   1.217  0.7995  0.0694  3.2643
  311WAT      O 1451   5.579   5.966   2.133  0.1417 -0.2835 -0.2026
  311WAT     H1 1452   5.634   5.893   2.162  0.3320 -0.4817 -1.0553
  311WAT     H2 1453   5.526   5.930   2.063 -2.3071 -0.5607  1.6684
  312WAT      O 1454   4.886   4.648   2.288 -0.1113  0.4216 -0.1852
  312WAT     H1 1455   4.792   4.654   2.303 -0.0616  1.0148 -0.1045
  312WAT     H2 1456   4.896   4.658   2.194 -0.2096 -0.7056 -0.3278
  313WAT      O 1457   5.559   5.523   2.200 -0.0440 -0.4916  0.0411
  313WAT     H1 1458   5.637   5.522   2.255 -0.2666  0.8814  0.4214
  313WAT     H2 1459   5.583   5.577   2.125 -0.7946  0.4326  0.4451
  314WAT      O 1460   7.181   4.312   1.387 -0.0648 -0.1835 -0.2375
  314WAT     H1 1461   7.114   4.351   1.332  0.6243  1.4261 -0.0039
  314WAT     H2 1462   7.169   4.354   1.473  0.3645 -0.8891  0.1770
  315WAT      O 1463   0.030   3.680   0.579  0.4159  0.6941  0.2309
  315WAT     H1 1464  -0.054   3.653   0.543  0.0404  1.2978  0.6498
  315WAT     H2 1465   0.095   3.635   0.524 -0.1459  1.5110 -1.1487
  316WAT      O 1466   4.688   5.396   0.732  0.2321 -0.0287  0.0586
  316WAT     H1 1467   4.708   5.324   0.793  0.0950 -0.5457 -0.4970
  316WAT     H2 1468   4.649   5.352   0.656 -0.2585  0.6826 -0.1047
  317WAT      O 1469   5.172   4.520   5.780  0.5733  0.0168  0.2981
  317WAT     H1 1470   5.104   4.587   5.785 -0.1031 -0.7207  1.4448
  317WAT     H2 1471   5.126   4.437   5.794  1.5657 -0.5951  0.1130
  318WAT      O 1472   7.302   2.222   0.082  0.1700 -0.0940 -0.5732
  318WAT     H1 1473   7.330   2.228  -0.009 -0.9800  2.3801 -0.8365
  318WAT     H2 1474   7.258   2.305   0.100  2.4594  0.5876  2.9750
  319WAT      O 1475   0.257   2.946   0.520 -0.4687  0.0002  0.2148
  319WAT     H1 1476   0.192   2.877   0.536 -0.6837  0.2161  0.2794
  319WAT     H2 1477   0.325   2.904   0.468 -1.4695  0.1926 -1.3082
  320WAT      O 1478   0.415   3.537   4.165  0.5141 -0.0218 -0.4933
  320WAT     H1 1479   0.331   3.575   4.192 -0.3201 -0.4057 -2.4005
  320WAT     H2 1480   0.451   3.600   4.103  1.4017 -0.1113 -0.0794
  321WAT      O 1481   0.584   4.869   4.030  0.2681 -0.2885  0.1904
  321WAT     H1 1482   0.593   4.941   3.967  0.6356 -0.7258 -0.2619
  321WAT     H2 1483   0.508   4.820   4.000 -0.9238  0.7479  1.3599
  322WAT      O 1484   4.830   5.545   4.800  0.5196 -0.4107 -0.3507
  322WAT     H1 1485   4.912   5.508   4.832  0.4368 -0.5519 -0.3017
  322WAT     H2 1486   4.799   5.483   4.734 -0.0212 -0.8374  0.2974
  323WAT      O 1487   5.620   2.413   4.985 -0.5668 -0.2121  0.4926
  323WAT     H1 1488   5.652   2.346   4.925 -1.9257 -0.0305 -0.4754
  323WAT     H2 1489   5.638   2.377   5.072 -1.7333 -2.1144  0.0224
  324WAT      O 1490   6.047   4.411   4.578 -0.1605 -0.1168 -0.1537
  324WAT     H1 1491   6.094   4.335   4.543 -0.2193 -0.4338  0.4418
  324WAT     H2 1492   6.062   4.480   4.513  0.8312 -0.3179 -0.1566
  325WAT      O 1493   6.156   2.915   5.990 -0.5784 -0.0426 -0.4443
  325WAT     H1 1494   6.153   2.932   5.895 -0.9799  0.3285 -0.3703
  325WAT     H2 1495   6.102   2.984   6.028  1.4298  1.2362  0.2511
  326WAT      O 1496   6.069   1.979   1.915  0.2766  0.0560  0.1478
  326WAT     H1 1497   5.984   2.022   1.903 -1.1965 -2.5726  0.3850
  326WAT     H2 1498   6.066   1.945   2.005  1.1886 -0.7963 -0.1227
  327WAT      O 1499   1.568   0.820   3.857  0.1522 -0.4438 -0.3842
  327WAT     H1 1500   1.533   0.850   3.941  2.6818  1.2537  0.2161
  327WAT     H2 1501   1.516   0.867   3.791 -0.4551 -0.0976  0.3272
  328WAT      O 1502   1.825   5.407   4.272  0.2181 -0.5138  0.3066
  328WAT     H1 1503   1.800   5.431   4.361 -0.1587 -0.5878  0.2208
  328WAT     H2 1504   1.787   5.321   4.259  0.4133 -0.5730  0.1319
  329WAT      O 1505   6.525   3.461   0.246 -0.4211  0.4409 -0.0387
  329WAT     H1 1506   6.506   3.547   0.284  1.4279  0.0698  1.9385
  329WAT     H2 1507   6.546   3.479   0.155  1.2743  2.3340  0.6467
  330WAT      O 1508   4.706   5.389   3.749 -0.4391  0.2111  0.1675
  330WAT     H1 1509   4.721   5.406   3.842 -0.8533  1.0288  0.0925
  330WAT     H2 1510   4.790   5.406   3.708 -0.4208  0.4734  0.3117
  331WAT      O 1511   0.276   2.630   5.984  0.4568  0.0162 -0.1633
  331WAT     H1 1512   0.321   2.710   6.013 -0.7930  0.7007 -0.0157
  331WAT     H2 1513   0.208   2.617   6.050  1.0363 -1.5620  0.1637
  332WAT      O 1514   2.627   3.973   5.882  0.2385  0.8619 -0.4056
  332WAT     H1 1515   2.709   4.022   5.883  0.1616  1.1119 -2.6071
  332WAT     H2 1516   2.650   3.886   5.916  1.3234  1.0457 -0.6484
  333WAT      O 1517   6.743   2.480   4.416 -0.4352  0.0633 -0.2458
  333WAT     H1 1518   6.771   2.565   4.449  1.1479 -0.6139  0.2484
  333WAT     H2 1519   6.675   2.452   4.478 -0.4338  0.6258  0.0160
  334WAT      O 1520   5.483   3.019   5.320 -0.4748  0.3219  0.0073
  334WAT     H1 1521   5.397   2.980   5.300  0.2033 -1.4925  0.4167
  334WAT     H2 1522   5.541   2.984   5.252  0.0530  1.1634  0.0141
  335WAT      O 1523   5.116   3.869   5.265 -0.2757 -0.2924  0.2595
  335WAT     H1 1524   5.108   3.896   5.174  1.4641  0.1516  0.2151
  335WAT     H2 1525   5.102   3.949   5.316  1.8466  0.1261  0.2410
  336WAT      O 1526   6.558   4.026   3.127  0.8821 -0.5674  0.4064
  336WAT     H1 1527   6.473   3.989   3.103  0.2959  0.9403  0.0601
  336WAT     H2 1528   6.608   4.027   3.045  0.6591  0.0179  0.2771
  337WAT      O 1529   7.176   4.079   3.026 -0.2943 -0.2863 -0.3481
  337WAT     H1 1530   7.122   4.126   3.090  0.3872  1.6757 -1.1448
  337WAT     H2 1531   7.114   4.028   2.974 -1.6187  2.7288 -1.9558
  338WAT      O 1532   1.328   4.473   2.834 -0.2895 -0.4232 -0.2989
  338WAT     H1 1533   1.358   4.543   2.776 -0.3458  0.1746  0.3824
  338WAT     H2 1534   1.253   4.511   2.881  0.4458 -0.5100  0.9789
  339WAT      O 1535   0.435   2.260   5.882  0.0302 -0.4608 -0.1459
  339WAT     H1 1536   0.424   2.350   5.854  0.8936 -0.5959 -0.9620
  339WAT     H2 1537   0.457   2.212   5.802 -0.3389 -1.3833  0.2873
  340WAT      O 1538   7.115   4.253   0.853  0.1461 -0.2015 -0.5340
  340WAT     H1 1539   7.199   4.299   0.846  0.5448 -0.7031  0.5627
  340WAT     H2 1540   7.113   4.195   0.777  0.7375 -0.0825 -0.6499
  341WAT      O 1541   6.310   5.000   4.040 -0.3396  0.0369 -0.2323
  341WAT     H1 1542   6.389   4.976   3.991 -0.8615 -2.6875  0.0844
  341WAT     H2 1543   6.242   4.941   4.007 -1.9079  1.3616  0.4724
  342WAT      O 1544   6.688   4.161   4.886 -0.3982 -0.5485  0.1987
  342WAT     H1 1545   6.707   4.127   4.799  0.3905  1.6056 -0.5280
  342WAT     H2 1546   6.764   4.213   4.910 -1.9495  1.6398  0.7195
  343WAT      O 1547   7.165   0.952   3.861 -0.1309 -0.5826 -0.1402
  343WAT     H1 1548   7.167   0.950   3.957  1.0198 -0.8382 -0.1563
  343WAT     H2 1549   7.242   0.903   3.834  1.3129  2.0458 -1.1556
  344WAT      O 1550   1.086   2.019   5.946  0.3989 -0.0294  0.5776
  344WAT     H1 1551   1.156   1.955   5.958  1.2540  1.0200  1.4416
  344WAT     H2 1552   1.056   2.005   5.856  1.3931 -0.8251  0.3434
  345WAT      O 1553   4.875   3.570   4.226 -0.0596  0.0043 -0.2072
  345WAT     H1 1554   4.875   3.660   4.259  1.0517  0.3049 -0.9574
  345WAT     H2 1555   4.826   3.521   4.291  0.4261  0.9193  0.8945
  346WAT      O 1556   0.772   3.405   4.758  0.0960  0.2151 -0.6049
  346WAT     H1 1557   0.851   3.353   4.772  0.6249  0.7750 -1.3816
  346WAT     H2 1558   0.802   3.479   4.704 -0.8482  0.7331 -0.4393
  347WAT      O 1559   3.656   3.462   4.274 -0.0727  0.0360  0.0465
  347WAT     H1 1560   3.588   3.398   4.252  1.0737 -1.5156  0.7789
  347WAT     H2 1561   3.697   3.483   4.190 -1.6751  1.2925 -0.4541
  348WAT      O 1562   6.988   3.008   5.822  0.2647 -0.3359 -0.0815
  348WAT     H1 1563   7.003   2.930   5.877 -0.6774 -0.5642 -0.1161
  348WAT     H2 1564   7.066   3.062   5.835  0.8314 -1.1797  0.1292
  349WAT      O 1565   0.811   1.937   4.343  0.3431 -0.3376 -0.0060
  349WAT     H1 1566   0.785   2.010   4.286 -1.5579 -1.0945 -0.1530
  349WAT     H2 1567   0.781   1.963   4.430  1.0669 -0.2752  0.2352
  350WAT      O 1568   6.225   3.222   5.811 -0.3235  0.6953 -0.0005
  350WAT     H1 1569   6.266   3.158   5.753  0.0999  0.5624  0.4380
  350WAT     H2 1570   6.269   3.210   5.895 -0.9598  0.8575  0.3599
  351WAT      O 1571   7.227   3.424   0.773 -0.6803  0.3067 -0.0097
  351WAT     H1 1572   7.189   3.502   0.734 -0.4529  0.7362  0.6030
  351WAT     H2 1573   7.170   3.405   0.848 -1.1621 -0.5522 -0.5879
  352WAT      O 1574   7.392   2.546   4.459  0.1138  0.8240  1.0531
  352WAT     H1 1575   7.380   2.571   4.367 -1.1175  0.7492  1.1750
  352WAT     H2 1576   7.333   2.603   4.507 -1.0460 -0.7309  1.5531
  353WAT      O 1577   7.293   0.123   3.352  0.2579 -0.6631  0.2562
  353WAT     H1 1578   7.327   0.210   3.372  0.3300 -0.3009 -1.3303
  353WAT     H2 1579   7.198   0.131   3.361  0.1390 -0.0091 -1.2012
  354WAT      O 1580   5.133   3.957   4.987 -0.1896 -0.0690 -0.6055
  354WAT     H1 1581   5.186   4.036   4.996 -2.1614  1.1003  2.0634
  354WAT     H2 1582   5.077   3.973   4.911  1.4447 -0.2500 -1.8934
  355WAT      O 1583   0.166   2.271   0.142  0.7968 -0.1979 -0.3117
  355WAT     H1 1584   0.075   2.254   0.116  0.1663  2.2535 -0.0319
  355WAT     H2 1585   0.218   2.242   0.067 -0.3694 -0.0469 -1.2148
  356WAT      O 1586   7.240   2.722   0.816 -0.6146 -0.1592  0.8590
  356WAT     H1 1587   7.264   2.637   0.853  4.1184  0.9965  1.0604
  356WAT     H2 1588   7.222   2.704   0.724  3.5493 -1.2421  0.0385
  357WAT      O 1589   2.107   4.821   4.641 -0.1172 -0.8194 -0.1925
  357WAT     H1 1590   2.140   4.819   4.731 -1.9704  1.9488  0.7143
  357WAT     H2 1591   2.159   4.890   4.599 -1.0882 -0.1529 -0.3390
  358WAT      O 1592   6.433   3.810   5.971  0.1166  0.4324  0.0777
  358WAT     H1 1593   6.391   3.884   6.014  0.4277  0.1384  0.8885
  358WAT     H2 1594   6.425   3.830   5.877  0.8163  1.8332  0.3020
  359WAT      O 1595   5.801   0.138   2.339 -0.2026  0.6526 -0.1834
  359WAT     H1 1596   5.794   0.217   2.392 -0.2834  0.2898  0.3617
  359WAT     H2 1597   5.787   0.066   2.401 -1.8349  0.2586 -0.9598
  360WAT      O 1598   7.231   2.170   5.350 -0.5478  0.0838  0.2325
  360WAT     H1 1599   7.160   2.178   5.286  0.0261  0.2946 -0.3964
  360WAT     H2 1600   7.311   2.179   5.297 -0.0358 -1.1737  0.7785
  361WAT      O 1601   5.012   4.987   5.842 -0.5618  0.1693 -0.1415
  361WAT     H1 1602   4.947   5.033   5.789 -0.5203 -1.7179 -1.9610
  361WAT     H2 1603   5.096   5.008   5.801 -0.6461 -2.5235 -2.0077
  362WAT      O 1604   0.296   2.334   5.067 -0.7881  0.1656 -0.3338
  362WAT     H1 1605   0.202   2.322   5.057 -0.6221 -0.0533 -1.8859
  362WAT     H2 1606   0.320   2.276   5.139 -1.6285 -0.8758 -0.8679
  363WAT      O 1607   6.296   4.124   2.030  0.2585 -0.4876 -0.2935
  363WAT     H1 1608   6.339   4.049   1.989 -0.4356 -0.1547 -1.6483
  363WAT     H2 1609   6.208   4.124   1.994 -0.1627  0.2097  0.7117
  364WAT      O 1610   0.471   2.310   4.823  0.0478  0.0087  0.2899
  364WAT     H1 1611   0.532   2.347   4.887 -0.8610  1.7175  0.2352
  364WAT     H2 1612   0.386   2.317   4.866 -0.4125 -0.0055 -0.5958
  365WAT      O 1613   2.178   4.693   5.527 -0.2462  0.0954 -0.0043
  365WAT     H1 1614   2.251   4.634   5.545 -0.3849 -0.0925 -0.0548
  365WAT     H2 1615   2.162   4.737   5.611 -1.0340 -0.9365  0.4119
  366WAT      O 1616   4.519   3.796   5.044  0.3648  0.6625  0.3261
  366WAT     H1 1617   4.534   3.707   5.075  1.5462  1.1174  1.1477
  366WAT     H2 1618   4.570   3.851   5.105  0.5192  1.8004 -0.7960
  367WAT      O 1619   5.741   2.988   4.000 -0.2320 -0.9240  0.4247
  367WAT     H1 1620   5.822   2.999   3.951 -0.4592  1.0230  0.4029
  367WAT     H2 1621   5.769   2.984   4.092 -0.0733 -0.8439  0.3803
  368WAT      O 1622   6.866   3.970   4.390  0.3111  0.1707 -0.2772
  368WAT     H1 1623   6.924   3.901   4.356  0.0648 -0.5271  0.6795
  368WAT     H2 1624   6.800   3.981   4.322  0.6165 -0.2104 -0.6399
  369WAT      O 1625   6.991   3.196   0.759  0.7236  0.0609  0.2499
  369WAT     H1 1626   7.038   3.192   0.843 -2.1251  1.2167  2.0647
  369WAT     H2 1627   6.979   3.289   0.743 -0.6671 -0.1766 -0.2451
  370WAT      O 1628   7.192   2.436   0.259 -0.8133  0.2859  0.2796
  370WAT     H1 1629   7.242   2.498   0.312 -0.2053  0.3529 -0.3704
  370WAT     H2 1630   7.196   2.354   0.308 -1.2723  0.6457  0.9346
  371WAT      O 1631   6.594   3.981   3.735 -0.4600  0.1416  0.3400
  371WAT     H1 1632   6.502   3.960   3.750 -0.6219  0.2885 -0.3865
  371WAT     H2 1633   6.622   3.916   3.670  0.0199 -0.0570  0.7367
  372WAT      O 1634   1.339   4.218   5.688  0.3933 -0.8442 -0.2406
  372WAT     H1 1635   1.430   4.190   5.691  0.2110 -1.4363  2.7290
  372WAT     H2 1636   1.292   4.144   5.650  1.1071 -0.4918 -1.8962
  373WAT      O 1637   5.664   3.129   0.819 -0.3025 -0.1238 -0.1026
  373WAT     H1 1638   5.737   3.120   0.757 -2.0269  1.4030 -2.5266
  373WAT     H2 1639   5.590   3.088   0.775 -1.7438  1.5611  0.6333
  374WAT      O 1640   6.463   1.944   4.280 -0.5293 -0.1875  0.1615
  374WAT     H1 1641   6.392   1.885   4.254  0.9273 -1.6308 -0.7930
  374WAT     H2 1642   6.476   1.927   4.373 -1.1654 -0.2113  0.2459
  375WAT      O 1643   6.721   3.152   5.922  0.0877 -0.0281  0.0710
  375WAT     H1 1644   6.734   3.177   6.014  1.8064  1.4573 -0.5121
  375WAT     H2 1645   6.792   3.092   5.903 -1.8335 -2.5509  0.3860
  376WAT      O 1646   5.782   3.385   4.468 -0.1094  0.1458 -0.0208
  376WAT     H1 1647   5.819   3.359   4.552  0.2590  2.6663  0.6896
  376WAT     H2 1648   5.848   3.359   4.404  0.9129  0.6868  0.7841
  377WAT      O 1649   6.096   3.976   5.987 -0.1583 -0.1860 -0.0415
  377WAT     H1 1650   6.084   3.883   6.006  0.6984  0.1149  2.3219
  377WAT     H2 1651   6.174   4.000   6.037 -0.9458  2.0146  0.2408
  378WAT      O 1652   6.724   2.840   4.728  0.6510 -0.2511 -0.0768
  378WAT     H1 1653   6.701   2.813   4.816  0.5808 -1.7215 -0.5132
  378WAT     H2 1654   6.732   2.935   4.733 -4.9119  0.5160  0.3053
  379WAT      O 1655   1.527   2.466   0.436 -0.6147  0.1526  0.5749
  379WAT     H1 1656   1.490   2.392   0.483  1.7399 -1.1422  0.5373
  379WAT     H2 1657   1.465   2.484   0.365 -0.8067 -2.4303  0.0012
  380WAT      O 1658   6.692   3.842   0.204  0.2236  0.3156  0.1144
  380WAT     H1 1659   6.651   3.766   0.245  2.2299 -0.5844  0.6000
  380WAT     H2 1660   6.662   3.839   0.113  0.6690 -1.4117 -0.0139
  381WAT      O 1661   6.347   2.142   2.117  0.2936 -0.3902 -0.0874
  381WAT     H1 1662   6.258   2.108   2.110  0.1631  0.0550 -0.7767
  381WAT     H2 1663   6.402   2.064   2.128 -0.0704 -0.7759 -0.8648
  382WAT      O 1664   5.285   4.285   5.421 -0.3429  0.7813 -0.1110
  382WAT     H1 1665   5.371   4.302   5.459 -0.0609  1.2130 -0.9194
  382WAT     H2 1666   5.303   4.260   5.330 -1.1493  2.6101 -0.8199
  383WAT      O 1667   6.617   2.501   4.683 -0.0387 -0.7569  0.6151
  383WAT     H1 1668   6.549   2.439   4.657  0.4845 -1.6183  1.2405
  383WAT     H2 1669   6.575   2.558   4.748 -1.4180  1.5479 -2.1012
  384WAT      O 1670   7.055   2.679   3.412  0.1358 -0.1904 -0.1577
  384WAT     H1 1671   6.968   2.699   3.446  0.4741  0.0057  0.6250
  384WAT     H2 1672   7.115   2.728   3.469  0.8733 -1.8570  0.5873
  385WAT      O 1673   5.933   2.597   0.185 -0.0447  0.1938 -0.3242
  385WAT     H1 1674   5.926   2.646   0.267  0.0084 -1.6822  0.8529
  385WAT     H2 1675   6.017   2.550   0.192  2.1850  3.2249 -3.3660
  386WAT      O 1676   0.191   3.201   0.200 -0.2774  0.5112 -0.0612
  386WAT     H1 1677   0.162   3.175   0.287  0.9344 -2.9615 -0.5686
  386WAT     H2 1678   0.264   3.262   0.216 -1.1526  1.2540  1.2546
  387WAT      O 1679   6.527   3.404   4.449 -1.1571  0.1265 -0.0351
  387WAT     H1 1680   6.514   3.458   4.526  1.9699  2.0227 -0.6772
  387WAT     H2 1681   6.538   3.315   4.483 -0.8835  0.7522  1.5758
  388WAT      O 1682   0.074   4.033   3.208  0.4085  0.4430  0.1950
  388WAT     H1 1683   0.108   3.955   3.252  0.3598  0.8713  1.0063
  388WAT     H2 1684  -0.021   4.021   3.208  0.3218  1.0329  1.3586
  389WAT      O 1685   6.764   2.763   0.179  0.2727  0.0359  0.0534
  389WAT     H1 1686   6.776   2.675   0.142 -2.6391 -0.0422 -1.0135
  389WAT     H2 1687   6.842   2.811   0.153  0.9313 -1.6534 -1.2639
  390WAT      O 1688   6.957   3.277   5.750 -0.6295  0.6807 -0.1586
  390WAT     H1 1689   6.899   3.226   5.805 -0.8126  0.9634 -0.0861
  390WAT     H2 1690   6.949   3.238   5.663 -1.6251  1.2807 -0.3527
  391WAT      O 1691   6.342   4.434   4.786  0.0545  0.1122 -0.0809
  391WAT     H1 1692   6.352   4.516   4.737 -0.3015  0.0418 -0.2751
  391WAT     H2 1693   6.393   4.370   4.737  1.3553  0.4883  0.7495
  392WAT      O 1694   0.151   2.969   0.038 -0.1071 -0.2904 -0.1580
  392WAT     H1 1695   0.076   2.915   0.066  0.1777 -0.8277 -0.4201
  392WAT     H2 1696   0.150   3.044   0.098 -1.6846  0.4248 -1.0253
  393WAT      O 1697   4.930   4.278   0.028  0.1355  0.2356 -0.5028
  393WAT     H1 1698   4.887   4.203  -0.013  0.4279 -0.6223  0.7155
  393WAT     H2 1699   4.999   4.303  -0.034  0.7044 -1.1528 -0.4598
  394WAT      O 1700   5.618   2.675   5.947 -0.4025  0.2946  0.1697
  394WAT     H1 1701   5.544   2.665   6.007 -0.2466 -1.6650  0.0847
  394WAT     H2 1702   5.668   2.594   5.955  0.7483  0.8203 -1.1165
  395WAT      O 1703   0.375   2.519   5.744  0.1804 -0.1917  0.2788
  395WAT     H1 1704   0.342   2.570   5.818 -0.3446 -0.5667  0.3060
  395WAT     H2 1705   0.320   2.441   5.741  0.5178 -0.4208 -0.2023
  396WAT      O 1706   4.550   3.582   5.171  0.2848  0.0800  0.4665
  396WAT     H1 1707   4.519   3.578   5.261 -1.3731  0.0004 -0.0739
  396WAT     H2 1708   4.636   3.540   5.173  0.5557  0.6649  2.1082
  397WAT      O 1709   7.001   0.539   3.154 -0.6294  0.1102 -0.0772
  397WAT     H1 1710   6.941   0.554   3.226 -0.2016 -2.5148  0.9231
  397WAT     H2 1711   6.965   0.464   3.107  0.6126 -0.0211 -0.8848
  398WAT      O 1712   0.171   3.093   5.657 -0.0017 -0.0680 -0.0519
  398WAT     H1 1713   0.212   3.156   5.716 -1.4205 -1.2147  2.3770
  398WAT     H2 1714   0.210   3.009   5.681 -2.4979 -0.9565  1.2873
  399WAT      O 1715   0.910   2.452   4.683  0.4615 -0.4986  0.0121
  399WAT     H1 1716   0.835   2.418   4.633  2.1382 -0.3909 -2.8418
  399WAT     H2 1717   0.889   2.544   4.698  0.2329 -0.3067 -1.3245
  400WAT      O 1718   5.705   5.763   1.658  0.5118  0.3010 -0.1502
  400WAT     H1 1719   5.708   5.855   1.684  0.4743  0.3256 -0.2334
  400WAT     H2 1720   5.634   5.726   1.710 -1.2618  0.9075 -2.0120
  401WAT      O 1721   5.914   2.853   4.336 -0.4129 -0.2548 -0.4899
  401WAT     H1 1722   5.951   2.804   4.410 -1.9045 -0.7896 -0.0569
  401WAT     H2 1723   5.968   2.829   4.261  0.8094 -0.1050  0.3285
  402WAT      O 1724   5.939   3.866   1.847 -0.1997  0.7358  0.4134
  402WAT     H1 1725   5.913   3.828   1.931  4.0934 -0.6149  1.3919
  402WAT     H2 1726   5.935   3.794   1.785 -2.1204  1.4280 -0.3470
  403WAT      O 1727   5.041   4.301   5.804 -0.6333 -0.2915  0.4624
  403WAT     H1 1728   5.087   4.222   5.775 -0.0902  0.0673  0.3267
  403WAT     H2 1729   4.949   4.285   5.779 -0.6882 -1.2357  1.2072
  404WAT      O 1730   1.240   3.646   5.747  0.1138  0.3741  0.0410
  404WAT     H1 1731   1.157   3.693   5.738 -1.5728 -2.0160  1.8299
  404WAT     H2 1732   1.215   3.554   5.749  3.1516 -0.6777 -2.3574
  405WAT      O 1733   6.952   3.775   4.145 -0.1992  0.6706  0.1042
  405WAT     H1 1734   6.875   3.786   4.088  0.6491  1.2285 -0.9877
  405WAT     H2 1735   7.023   3.751   4.085  0.8340  1.7400  0.8435
  406WAT      O 1736   3.269   4.447   4.715  0.0470  0.2326 -0.0439
  406WAT     H1 1737   3.285   4.374   4.775  1.1363  0.0912 -0.4964
  406WAT     H2 1738   3.204   4.501   4.761  0.0928 -0.4127  0.8066
  407WAT      O 1739   0.502   3.254   4.898 -0.6936  0.2644 -0.4193
  407WAT     H1 1740   0.580   3.222   4.943 -2.0294 -1.6222  0.6783
  407WAT     H2 1741   0.474   3.330   4.949 -0.5884 -0.1579  0.2840
  408WAT      O 1742   5.379   5.316   4.533 -0.5386 -0.6298  0.7414
  408WAT     H1 1743   5.321   5.280   4.466 -1.4263  0.6689  0.7880
  408WAT     H2 1744   5.457   5.260   4.529 -0.9038 -1.0849 -0.7941
  409WAT      O 1745   5.281   3.356   3.279 -0.3842 -0.3785 -0.0818
  409WAT     H1 1746   5.288   3.435   3.334 -1.3523  0.8692 -1.6543
  409WAT     H2 1747   5.368   3.347   3.239 -0.0282 -0.6098  0.7170
  410WAT      O 1748   1.014   1.251   4.159 -0.1769 -0.6229 -0.4302
  410WAT     H1 1749   1.013   1.263   4.254  1.0484  2.6394 -0.6809
  410WAT     H2 1750   0.980   1.334   4.124  1.0296 -1.0444 -2.8406
  411WAT      O 1751   6.404   4.171   3.582 -0.0147  0.5234 -0.4778
  411WAT     H1 1752   6.464   4.111   3.538  0.0220  1.7137 -2.1450
  411WAT     H2 1753   6.358   4.117   3.647 -0.1669 -1.3458 -2.0679
  412WAT      O 1754   0.464   5.004   2.285  0.0637 -0.3653  0.2455
  412WAT     H1 1755   0.373   4.976   2.273 -0.2044  0.2034  0.9088
  412WAT     H2 1756   0.461   5.062   2.361  0.9807 -0.3272  0.2558
  413WAT      O 1757   0.581   5.805   3.394  0.6899 -0.5655  0.4962
  413WAT     H1 1758   0.576   5.712   3.373  1.8890 -0.4027 -0.6339
  413WAT     H2 1759   0.620   5.845   3.317 -1.9041  1.2610  0.0064
  414WAT      O 1760   5.692   5.653   3.967 -0.0923 -0.3862  0.0630
  414WAT     H1 1761   5.624   5.586   3.963  0.1569 -0.6941  0.7646
  414WAT     H2 1762   5.740   5.633   4.048 -0.7614  1.3534  0.9468
  415WAT      O 1763   7.022   5.548   3.410 -0.4004 -0.2967 -0.3657
  415WAT     H1 1764   7.087   5.559   3.340 -0.0324 -0.9579 -0.1333
  415WAT     H2 1765   7.018   5.453   3.424  0.0280 -0.1313  0.9868
  416WAT      O 1766   1.505   2.347   1.195  0.0157  0.7536  0.0496
  416WAT     H1 1767   1.492   2.326   1.288 -1.2740 -0.9243 -0.4731
  416WAT     H2 1768   1.443   2.418   1.178 -0.1771  0.6518  0.3201
  417WAT      O 1769   5.713   5.277   3.042 -0.1471 -0.3177  0.2242
  417WAT     H1 1770   5.698   5.355   3.094 -1.7662 -1.6045  1.7914
  417WAT     H2 1771   5.641   5.274   2.980 -0.4303 -0.8505  0.5655
  418WAT      O 1772   5.840   3.860   2.564 -0.0436  0.0060 -0.4739
  418WAT     H1 1773   5.750   3.828   2.560  0.6118 -2.3740  1.5393
  418WAT     H2 1774   5.837   3.931   2.628 -0.2341 -1.3714  1.1165
  419WAT      O 1775   3.551   4.680   3.863 -0.2598 -0.6877  0.5485
  419WAT     H1 1776   3.558   4.663   3.769 -1.2832 -0.2242  0.3779
  419WAT     H2 1777   3.577   4.597   3.904  0.2537 -0.8727 -0.1287
  420WAT      O 1778   0.728   0.522   3.225  0.5842 -0.2794  0.1143
  420WAT     H1 1779   0.808   0.473   3.240  0.5240  0.2064  2.3344
  420WAT     H2 1780   0.738   0.601   3.278  0.3467  1.8298 -2.7214
  421WAT      O 1781   5.480   2.939   3.930 -0.1502  0.8432 -0.2383
  421WAT     H1 1782   5.428   2.954   4.009  1.7821 -1.8499  1.7475
  421WAT     H2 1783   5.571   2.944   3.959  0.6415 -0.0851 -2.3188
  422WAT      O 1784   6.609   3.029   3.509 -0.7152  0.2051  0.0432
  422WAT     H1 1785   6.603   3.071   3.595  0.3862 -0.2347  0.3484
  422WAT     H2 1786   6.689   2.977   3.513 -1.7060 -1.4333 -0.5426
  423WAT      O 1787   5.837   4.101   3.218 -0.5339  0.4355 -0.0548
  423WAT     H1 1788   5.786   4.056   3.285 -1.5289  0.8129 -0.5368
  423WAT     H2 1789   5.809   4.060   3.136  1.5099 -0.8333 -0.1976
  424WAT      O 1790   6.704   0.623   2.465 -0.3309  0.3528 -0.2005
  424WAT     H1 1791   6.655   0.670   2.533 -1.2236 -0.5890 -0.1780
  424WAT     H2 1792   6.749   0.553   2.511  0.4755  0.7685 -0.3346
  425WAT      O 1793   6.923   1.460   4.277 -0.0184  0.3757  0.1195
  425WAT     H1 1794   6.949   1.411   4.355 -0.7090 -2.5179 -1.3271
  425WAT     H2 1795   6.833   1.487   4.295 -1.1263 -2.5235 -0.5241
  426WAT      O 1796   5.540   4.993   2.802  0.6273 -0.4651  0.0090
  426WAT     H1 1797   5.546   5.083   2.835 -0.2193 -0.6783  0.8014
  426WAT     H2 1798   5.518   4.941   2.880 -1.8919 -0.9389 -0.9109
  427WAT      O 1799   4.263   4.350   3.326  0.1696  0.1699  0.4821
  427WAT     H1 1800   4.280   4.440   3.298 -1.1146  0.3122  0.0825
  427WAT     H2 1801   4.170   4.349   3.348 -0.2002 -1.4044 -0.9190
  428WAT      O 1802   5.761   4.063   4.637 -0.2105 -0.3624  0.3227
  428WAT     H1 1803   5.798   4.021   4.715 -2.1490  0.8396  2.0194
  428WAT     H2 1804   5.673   4.026   4.631 -0.0745 -0.4553 -1.3630
  429WAT      O 1805   5.234   2.009   2.818 -0.1450 -0.2487 -0.8074
  429WAT     H1 1806   5.142   1.998   2.794 -0.1360 -2.2247 -0.1342
  429WAT     H2 1807   5.236   2.092   2.865 -1.3759  0.3424 -1.7392
  430WAT      O 1808   6.419   4.412   3.973 -0.4665  0.6679 -0.1471
  430WAT     H1 1809   6.329   4.388   3.953  0.0028 -1.2640 -0.1387
  430WAT     H2 1810   6.441   4.480   3.909 -1.8692  1.0817 -0.2178
  431WAT      O 1811   0.711   5.844   3.147  0.4003 -0.0989  0.0015
  431WAT     H1 1812   0.666   5.915   3.101  2.1748 -0.2522 -2.2027
  431WAT     H2 1813   0.790   5.885   3.183  0.7590 -0.6779 -0.1154
  432WAT      O 1814   4.926   4.329   5.526 -0.2494 -0.0260  0.2169
  432WAT     H1 1815   4.991   4.346   5.595  0.0976 -0.1766 -0.0694
  432WAT     H2 1816   4.959   4.378   5.450 -0.5858  0.0716  0.1312
  433WAT      O 1817   1.620   4.481   2.604 -0.1273  0.2686 -0.3649
  433WAT     H1 1818   1.540   4.520   2.641  0.9025  3.0375 -0.8633
  433WAT     H2 1819   1.609   4.387   2.620 -2.5165  0.7383  1.4641
  434WAT      O 1820   0.792   3.132   3.301  0.1251  0.1927  0.3352
  434WAT     H1 1821   0.873   3.124   3.251 -0.1610 -0.8244  0.0228
  434WAT     H2 1822   0.733   3.182   3.245 -0.2274 -1.0226 -0.4157
  435WAT      O 1823   0.054   2.808   4.151 -0.2713  0.2680 -0.3213
  435WAT     H1 1824   0.143   2.774   4.140  0.4679  2.3061 -1.0636
  435WAT     H2 1825   0.005   2.734   4.188  1.2743 -1.4942 -1.5800
  436WAT      O 1826   6.014   3.675   2.484  0.0912 -0.5458  0.3640
  436WAT     H1 1827   5.973   3.614   2.422 -0.1033  0.9670 -1.0602
  436WAT     H2 1828   5.946   3.740   2.502  0.3464 -0.6366  1.7234
  437WAT      O 1829   6.026   3.914   3.654 -0.0851  0.1308 -0.0070
  437WAT     H1 1830   6.001   3.998   3.694 -3.6391 -0.4436 -0.6803
  437WAT     H2 1831   6.028   3.932   3.560 -0.2299 -0.3836 -0.1096
  438WAT      O 1832   6.442   3.323   5.540 -0.3732 -0.6377 -0.0894
  438WAT     H1 1833   6.488   3.336   5.624 -2.3143  0.0409  0.9232
  438WAT     H2 1834   6.441   3.409   5.499 -0.6356 -0.6753 -0.1627
  439WAT      O 1835   0.488   3.547   5.482  0.3383 -0.2806 -0.1116
  439WAT     H1 1836   0.464   3.573   5.571  0.0893 -1.2463  0.1151
  439WAT     H2 1837   0.583   3.549   5.481  0.4000  3.0831 -0.8592
  440WAT      O 1838   0.193   5.904   3.627  0.3620  0.4619  0.0658
  440WAT     H1 1839   0.153   5.976   3.676 -0.3764  0.3100 -0.2987
  440WAT     H2 1840   0.180   5.928   3.535 -0.1412 -0.2576 -0.0623
  441WAT      O 1841   7.176   3.339   4.487  0.3756  0.1908 -0.1395
  441WAT     H1 1842   7.147   3.417   4.440 -0.1745  0.0920  0.0301
  441WAT     H2 1843   7.184   3.368   4.578 -0.3814 -0.0844  0.0234
  442WAT      O 1844   6.090   3.891   3.398  0.0465  0.2660 -0.3480
  442WAT     H1 1845   6.184   3.880   3.380 -0.2010 -1.6210 -0.6038
  442WAT     H2 1846   6.050   3.900   3.311 -0.1620 -0.3190 -0.3158
  443WAT      O 1847   0.924   2.937   4.347 -0.0285  0.1258 -0.7422
  443WAT     H1 1848   0.914   3.016   4.294 -0.2383  1.5540  1.2868
  443WAT     H2 1849   0.954   2.969   4.432  0.1950 -2.0292  0.0594
  444WAT      O 1850   5.552   5.499   3.448  0.0678  0.0078  0.0057
  444WAT     H1 1851   5.586   5.560   3.513  1.8883 -0.8951 -0.0122
  444WAT     H2 1852   5.512   5.429   3.499 -1.3069  0.7931  0.0441
  445WAT      O 1853   7.365   4.259   4.278 -0.5103  0.4596 -0.0701
  445WAT     H1 1854   7.374   4.186   4.217 -1.0483 -0.1083  0.5139
  445WAT     H2 1855   7.272   4.264   4.297 -0.4306  1.0530  0.2050
  446WAT      O 1856   1.025   3.910   3.593  0.0518  0.5539 -0.2486
  446WAT     H1 1857   1.090   3.981   3.597  1.0160 -0.3161  0.1118
  446WAT     H2 1858   1.070   3.835   3.633 -1.0738 -0.1607 -0.2978
  447WAT      O 1859   7.134   3.607   4.669  0.0356 -0.3862 -0.0153
  447WAT     H1 1860   7.109   3.641   4.755  3.0932 -2.2373  1.7916
  447WAT     H2 1861   7.197   3.671   4.635 -1.2935  0.4323 -1.0529
  448WAT      O 1862   6.942   5.250   3.095  0.1474  0.6566 -0.1023
  448WAT     H1 1863   6.933   5.272   3.003 -3.3569  2.7411  0.5898
  448WAT     H2 1864   6.860   5.207   3.118  1.7110 -1.6332  1.6914
  449WAT      O 1865   5.296   5.839   2.779 -0.4209  0.6614 -0.1517
  449WAT     H1 1866   5.383   5.858   2.744 -0.5435  0.2915 -0.6669
  449WAT     H2 1867   5.279   5.911   2.840 -0.5274  1.7783 -1.4356
  450WAT      O 1868   3.975   3.691   4.724 -0.4013 -0.6740 -0.2815
  450WAT     H1 1869   4.035   3.631   4.681 -0.5604 -0.3140 -1.0300
  450WAT     H2 1870   3.891   3.678   4.679 -0.6122 -0.3885  0.0186
  451WAT      O 1871   6.681   4.891   2.641 -0.0443  0.2440 -0.0304
  451WAT     H1 1872   6.640   4.977   2.653  0.1811  0.3511 -0.0210
  451WAT     H2 1873   6.646   4.860   2.557  1.6747  1.3902 -1.2414
  452WAT      O 1874   0.455   2.449   3.102  0.5979 -0.2078  0.1793
  452WAT     H1 1875   0.521   2.508   3.067  1.2026 -0.0226  1.5438
  452WAT     H2 1876   0.464   2.457   3.197 -0.2677 -1.4419  0.3927
  453WAT      O 1877   6.894   4.340   2.531  0.3693  0.5229 -0.0534
  453WAT     H1 1878   6.900   4.305   2.442 -1.2307 -0.4971  0.2122
  453WAT     H2 1879   6.862   4.429   2.519 -0.4741  0.1676 -0.4737
  454WAT      O 1880   1.165   5.143   4.062  0.0202 -0.5321 -0.4754
  454WAT     H1 1881   1.117   5.064   4.086 -0.9889  0.0906 -0.3926
  454WAT     H2 1882   1.217   5.164   4.139 -1.0017 -0.1703  0.1226
  455WAT      O 1883   6.499   2.805   4.236 -0.2087 -0.2165 -0.1172
  455WAT     H1 1884   6.481   2.898   4.217 -2.1046 -0.3136  0.9199
  455WAT     H2 1885   6.497   2.800   4.331 -0.2316 -1.3343 -0.1643
  456WAT      O 1886   1.092   0.514   3.850 -0.4713 -0.3720  0.5668
  456WAT     H1 1887   1.107   0.511   3.755  0.1810  0.9543  0.6095
  456WAT     H2 1888   1.177   0.490   3.888 -0.1576  1.0333  0.8019
  457WAT      O 1889   3.218   4.316   3.870  0.4266 -0.1040 -0.4683
  457WAT     H1 1890   3.217   4.391   3.809 -1.5931 -0.7793 -1.3518
  457WAT     H2 1891   3.160   4.343   3.941 -0.0166 -0.6636 -0.6113
  458WAT      O 1892   5.948   1.800   3.172  0.0324  0.5196  0.0930
  458WAT     H1 1893   6.040   1.818   3.153  0.1002  1.3994  1.1858
  458WAT     H2 1894   5.916   1.879   3.215 -1.0024 -0.1103  0.5235
  459WAT      O 1895   6.274   1.694   3.984  0.7313  0.2233  0.3239
  459WAT     H1 1896   6.197   1.687   4.040  1.2437  1.5497  1.2381
  459WAT     H2 1897   6.248   1.755   3.916  0.3565 -0.8275 -0.5137
  460WAT      O 1898   6.755   0.684   4.009  0.3713  0.2801  0.3262
  460WAT     H1 1899   6.734   0.732   3.929  0.9436 -0.0833 -0.0563
  460WAT     H2 1900   6.784   0.751   4.071 -0.7565  0.6462  0.4765
  461WAT      O 1901   0.098   2.109   4.297 -0.0808  0.4543  0.4175
  461WAT     H1 1902   0.187   2.076   4.285  0.2748  1.0985  1.1592
  461WAT     H2 1903   0.069   2.134   4.209 -0.1697 -1.2997 -0.0861
  462WAT      O 1904   5.673   1.925   3.554 -0.1158  0.7543  0.3644
  462WAT     H1 1905   5.715   1.975   3.624  0.9443 -1.2718  1.2760
  462WAT     H2 1906   5.588   1.967   3.542  0.5784  2.5218  1.2962
  463WAT      O 1907   5.616   3.412   2.753  0.4499  0.1763 -0.0598
  463WAT     H1 1908   5.549   3.356   2.792 -0.8139  0.6800 -1.4055
  463WAT     H2 1909   5.669   3.353   2.700  1.6853 -0.3769  1.7379
  464WAT      O 1910   5.432   2.330   2.202  0.2104 -0.9659 -0.1687
  464WAT     H1 1911   5.378   2.268   2.250 -0.3738  1.0897  2.0332
  464WAT     H2 1912   5.502   2.353   2.263  0.8671 -0.0555 -1.2195
  465WAT      O 1913   5.343   3.689   4.910 -0.2401  0.1664  0.0115
  465WAT     H1 1914   5.353   3.738   4.992 -0.2026  1.2185 -0.6055
  465WAT     H2 1915   5.433   3.670   4.882 -0.2275  0.7527 -0.3415
  466WAT      O 1916   7.249   3.053   5.510 -0.1880  0.2795 -0.3429
  466WAT     H1 1917   7.253   2.986   5.442 -1.6780 -0.5355  0.3465
  466WAT     H2 1918   7.327   3.037   5.563 -0.5703 -0.9859 -0.1288
  467WAT      O 1919   7.088   3.236   3.000  0.2804  0.1223  0.3642
  467WAT     H1 1920   7.163   3.260   3.054  0.0947  0.5572  0.4353
  467WAT     H2 1921   7.121   3.243   2.910 -0.1660  2.1530  0.3114
  468WAT      O 1922   4.835   3.864   4.249 -0.0462 -0.2681 -0.0050
  468WAT     H1 1923   4.781   3.940   4.227 -3.0534 -1.9712  0.7911
  468WAT     H2 1924   4.820   3.851   4.343  2.1865 -0.6109  0.3606
  469WAT      O 1925   6.862   1.769   4.455  0.3650 -0.6240 -0.4767
  469WAT     H1 1926   6.834   1.850   4.412  0.0767  0.0665  0.9414
  469WAT     H2 1927   6.785   1.712   4.453  0.3025 -0.5333 -0.7095
  470WAT      O 1928   4.888   2.782   5.747  0.4479  0.5465  0.6386
  470WAT     H1 1929   4.844   2.835   5.681 -0.1484  0.0324  0.6114
  470WAT     H2 1930   4.948   2.727   5.697 -0.7012 -0.5368  0.3960
  471WAT      O 1931   4.393   3.652   4.182 -0.4420  0.2061  0.2131
  471WAT     H1 1932   4.474   3.652   4.131  0.1999  1.7546  1.1675
  471WAT     H2 1933   4.332   3.599   4.131  0.4764  0.8870 -1.6684
  472WAT      O 1934   0.479   3.133   0.085 -0.7013  0.3003 -0.2726
  472WAT     H1 1935   0.486   3.224   0.115  0.8610  0.9314 -2.2898
  472WAT     H2 1936   0.565   3.096   0.101 -0.3035  0.2023 -2.3199
  473WAT      O 1937   5.910   2.768   5.095  0.2783 -0.2677 -0.1331
  473WAT     H1 1938   5.942   2.721   5.172 -1.6072  0.6827  1.3152
  473WAT     H2 1939   5.933   2.712   5.021  2.0239 -1.2828  1.1215
  474WAT      O 1940   4.750   3.900   5.205 -0.5467  0.3116 -0.3251
  474WAT     H1 1941   4.776   3.987   5.237  0.3936  0.0540 -0.3480
  474WAT     H2 1942   4.723   3.853   5.284 -0.3158  0.3795 -0.2028
  475WAT      O 1943   6.609   3.412   1.123 -0.5116 -0.0759  0.2291
  475WAT     H1 1944   6.569   3.347   1.182 -0.6682 -0.4595 -0.2947
  475WAT     H2 1945   6.542   3.427   1.056  0.3946 -1.0769 -0.9253
  476WAT      O 1946   1.736   3.378   4.503  0.3710 -0.0463  0.5145
  476WAT     H1 1947   1.703   3.342   4.585 -0.2246  2.9672  1.7584
  476WAT     H2 1948   1.726   3.473   4.513  2.5356  0.5962 -2.0956
  477WAT      O 1949   5.276   1.237   2.565  0.0775  0.1858  0.0627
  477WAT     H1 1950   5.282   1.146   2.535  0.9000  0.7785 -1.7005
  477WAT     H2 1951   5.192   1.268   2.529 -1.2949 -0.4386  2.4847
  478WAT      O 1952   6.469   3.152   4.272  0.3274  0.0514 -0.2215
  478WAT     H1 1953   6.388   3.202   4.265 -0.1035  0.0447  2.9516
  478WAT     H2 1954   6.482   3.143   4.366  2.3235 -2.7133 -0.6515
  479WAT      O 1955   6.374   4.106   4.294  0.1240 -0.2076 -0.2740
  479WAT     H1 1956   6.432   4.135   4.223 -0.2097  1.7884  0.2167
  479WAT     H2 1957   6.286   4.130   4.265  0.0821  1.6758  1.2325
  480WAT      O 1958   0.354   4.399   3.223  0.5295 -0.3211  0.3444
  480WAT     H1 1959   0.346   4.351   3.306  2.0438 -0.5923  0.3572
  480WAT     H2 1960   0.430   4.456   3.236  0.0476  0.5243 -0.4425
  481WAT      O 1961   4.148   3.856   3.194 -0.2857  0.6375 -0.3640
  481WAT     H1 1962   4.117   3.872   3.105 -0.2948  0.7672 -0.3377
  481WAT     H2 1963   4.184   3.940   3.223 -0.6658  0.7107 -0.0929
  482WAT      O 1964   5.424   3.857   2.565 -0.1045  0.4625 -0.6639
  482WAT     H1 1965   5.462   3.941   2.591  1.1031  0.0994 -1.1785
  482WAT     H2 1966   5.496   3.795   2.573 -1.8414 -1.3411  3.3633
  483WAT      O 1967   2.050   5.201   4.958 -0.3307  0.1510 -0.3590
  483WAT     H1 1968   2.029   5.117   4.997  0.1432  0.1500 -0.0855
  483WAT     H2 1969   2.001   5.204   4.876  1.4017 -1.3838 -1.5240
  484WAT      O 1970   6.559   4.898   1.932  0.5373  0.2317  0.4508
  484WAT     H1 1971   6.580   4.805   1.928 -0.5072  0.0154 -2.1517
  484WAT     H2 1972   6.465   4.902   1.946  0.3437  0.8168 -0.8250
  485WAT      O 1973   6.474   4.274   4.648 -0.2324  0.1343  0.2878
  485WAT     H1 1974   6.552   4.225   4.677  0.3416  0.4201 -0.7416
  485WAT     H2 1975   6.487   4.286   4.554 -2.4373 -1.4790 -0.2943
  486WAT      O 1976   0.236   2.689   3.389  0.3379  0.2443  0.2539
  486WAT     H1 1977   0.311   2.674   3.447 -1.9138  0.1266  3.3610
  486WAT     H2 1978   0.276   2.700   3.302  3.9347  0.3641  1.7150
  487WAT      O 1979   0.395   5.246   4.051  0.0258  0.1233 -0.0064
  487WAT     H1 1980   0.373   5.232   4.143  1.9043 -1.2088  0.3054
  487WAT     H2 1981   0.415   5.339   4.045 -0.7736  0.3590  0.7691
  488WAT      O 1982   0.046   3.184   3.072  0.1785 -0.3553  0.3017
  488WAT     H1 1983   0.002   3.269   3.072 -0.0082 -0.4417  1.0660
  488WAT     H2 1984   0.077   3.173   2.982  1.0479  0.9559  0.4156
  489WAT      O 1985   1.373   3.895   4.730  0.0613  0.5175 -1.0059
  489WAT     H1 1986   1.397   3.812   4.689 -0.9298  0.4364 -1.4678
  489WAT     H2 1987   1.453   3.925   4.774  0.1595 -1.1421 -0.0112
  490WAT      O 1988   6.441   2.578   4.905  0.3219  0.2030 -0.5531
  490WAT     H1 1989   6.472   2.597   4.994 -1.2088 -0.5553  0.1779
  490WAT     H2 1990   6.372   2.643   4.890 -1.0530 -1.1349 -0.2378
  491WAT      O 1991   4.519   4.215   5.097 -0.4270 -0.0253  0.5640
  491WAT     H1 1992   4.504   4.148   5.163 -1.4056 -0.0281  0.3429
  491WAT     H2 1993   4.579   4.277   5.140 -0.6016 -0.3219  1.2519
  492WAT      O 1994   6.781   2.366   3.789  0.4296  0.3518 -0.2476
  492WAT     H1 1995   6.830   2.340   3.711 -0.1574  0.5794 -0.6979
  492WAT     H2 1996   6.698   2.400   3.756  0.6295  1.5291  0.4126
  493WAT      O 1997   6.466   5.941   2.805  0.3112 -0.0943 -0.2340
  493WAT     H1 1998   6.461   6.033   2.832 -1.6259 -0.7551  1.9737
  493WAT     H2 1999   6.496   5.895   2.883 -0.8747 -1.5891 -0.6199
  494WAT      O 2000   0.180   6.128   3.002  0.5243 -0.0432  0.1630
  494WAT     H1 2001   0.111   6.193   2.988  0.5660 -0.0458 -0.0600
  494WAT     H2 2002   0.138   6.058   3.052  0.2142 -0.3009 -0.4429
  495WAT      O 2003   4.385   5.460   3.838  0.4161  0.1996  0.2767
  495WAT     H1 2004   4.310   5.496   3.887  0.5913  3.3100 -1.4615
  495WAT     H2 2005   4.461   5.492   3.886  0.5711  1.8626 -0.9773
  496WAT      O 2006   0.070   2.833   2.796 -0.4457  0.5852  0.1926
  496WAT     H1 2007   0.006   2.765   2.816 -0.0582 -0.1551 -1.0000
  496WAT     H2 2008   0.048   2.862   2.707  0.9062  0.2406 -0.2897
  497WAT      O 2009   0.470   4.747   2.098 -0.6794  0.4711 -0.5114
  497WAT     H1 2010   0.529   4.778   2.029 -1.5051  2.8230 -0.2701
  497WAT     H2 2011   0.382   4.764   2.064 -1.1189  0.6266  0.6507
  498WAT      O 2012   0.987   3.249   4.852 -0.1475 -0.3416 -0.4146
  498WAT     H1 2013   0.948   3.187   4.913 -0.6461  0.6335  0.3044
  498WAT     H2 2014   1.051   3.297   4.904  1.5344 -1.4269 -1.4049
  499WAT      O 2015   5.369   2.878   4.541 -0.3718  0.1361  0.3418
  499WAT     H1 2016   5.371   2.797   4.592 -1.4636 -0.6838 -0.8303
  499WAT     H2 2017   5.455   2.882   4.499 -0.0182  0.0291  1.0410
  500WAT      O 2018   0.145   5.764   2.565  0.0538  0.0410 -0.0833
  500WAT     H1 2019   0.080   5.791   2.500 -0.2098 -0.1738  0.0908
  500WAT     H2 2020   0.094   5.744   2.644  0.0610 -2.2452 -0.5824
  501WAT      O 2021   1.433   4.580   4.317 -0.1171  0.4223  0.5666
  501WAT     H1 2022   1.452   4.527   4.395 -2.0731 -0.4066  0.5427
  501WAT     H2 2023   1.347   4.549   4.288  0.7693  0.3313 -2.2584
  502WAT      O 2024   6.341   3.827   3.358 -0.2098 -0.1973  0.7061
  502WAT     H1 2025   6.416   3.885   3.352  0.1944 -0.7629  0.1281
  502WAT     H2 2026   6.379   3.740   3.375 -0.6512 -0.6548 -0.4986
  503WAT      O 2027   7.174   3.792   3.462 -0.9135 -0.0171  0.0828
  503WAT     H1 2028   7.214   3.735   3.396  0.6047  1.1357 -0.0380
  503WAT     H2 2029   7.092   3.821   3.421  0.8404  2.1826 -2.2153
  504WAT      O 2030   0.823   2.253   2.755 -0.1176  0.1309  0.0325
  504WAT     H1 2031   0.862   2.235   2.669  0.7322 -1.0220  0.6242
  504WAT     H2 2032   0.881   2.209   2.817 -1.2398  0.1330  1.1224
  505WAT      O 2033   0.352   3.294   3.945 -0.2974 -0.3271 -0.4085
  505WAT     H1 2034   0.426   3.323   3.891  0.3183 -0.3100  0.4289
  505WAT     H2 2035   0.382   3.306   4.035 -1.4747  0.0711 -0.0516
  506WAT      O 2036   6.599   4.749   3.911  0.1993  0.4343  0.5710
  506WAT     H1 2037   6.559   4.696   3.980  0.4258  0.2249  0.5396
  506WAT     H2 2038   6.652   4.687   3.861 -0.1186  0.5441  0.0901
  507WAT      O 2039   6.795   3.895   2.534  0.0231  0.2762 -0.2400
  507WAT     H1 2040   6.853   3.835   2.582  1.0265  0.3825 -1.2662
  507WAT     H2 2041   6.818   3.981   2.567  0.3896  0.3057 -0.5520
  508WAT      O 2042   0.447   4.112   3.744  0.2992  0.5069 -0.2331
  508WAT     H1 2043   0.389   4.094   3.670  0.2667 -0.4223 -0.0003
  508WAT     H2 2044   0.456   4.027   3.788  1.8459  0.6291 -0.2753
  509WAT      O 2045   0.193   4.447   4.142  0.3209 -0.7308 -0.2426
  509WAT     H1 2046   0.137   4.387   4.192 -0.1838 -0.0232  0.0662
  509WAT     H2 2047   0.157   4.534   4.161  0.7205 -0.3722 -1.0862
  510WAT      O 2048   1.951   4.532   5.494 -0.4978 -0.2555 -0.2733
  510WAT     H1 2049   1.931   4.566   5.406 -0.4997  0.6156  0.0652
  510WAT     H2 2050   2.020   4.589   5.527 -2.4576  1.2695  1.4299
  511WAT      O 2051   6.548   1.274   3.641 -0.3144  0.9122 -0.0446
  511WAT     H1 2052   6.601   1.265   3.562  0.3318  0.8329  0.3935
  511WAT     H2 2053   6.609   1.260   3.714 -0.9087  0.9269  0.4725
  512WAT      O 2054   0.456   4.395   3.805  0.1625 -0.2997  0.2079
  512WAT     H1 2055   0.493   4.315   3.768  1.3734  0.4140 -0.1798
  512WAT     H2 2056   0.365   4.373   3.823 -0.1172 -1.1315 -1.8858
  513WAT      O 2057   6.743   4.878   2.961  0.1497  0.3630 -0.7447
  513WAT     H1 2058   6.671   4.818   2.980  1.5238 -1.7878 -1.9075
  513WAT     H2 2059   6.701   4.955   2.923 -1.6142 -0.2474 -0.1458
  514WAT      O 2060   6.173   3.698   4.054 -0.5931 -0.0167 -0.4632
  514WAT     H1 2061   6.136   3.637   4.117  0.6512  0.3034  0.6129
  514WAT     H2 2062   6.168   3.652   3.970  2.5285 -2.7089  0.6331
  515WAT      O 2063   6.438   2.774   3.588  0.2432 -0.4179  0.1903
  515WAT     H1 2064   6.526   2.755   3.622 -0.6405 -2.4174  1.5843
  515WAT     H2 2065   6.379   2.732   3.651 -1.7979  1.8302 -0.0672
  516WAT      O 2066   7.135   4.370   3.697 -0.0251 -0.1909  0.1658
  516WAT     H1 2067   7.136   4.460   3.665 -0.9739  0.3799  1.6048
  516WAT     H2 2068   7.050   4.336   3.671 -0.3490 -0.0918  1.0574
  517WAT      O 2069   5.834   3.918   4.851 -0.4336  0.4345  0.3252
  517WAT     H1 2070   5.847   3.956   4.938  1.1762 -0.1987  0.3914
  517WAT     H2 2071   5.866   3.829   4.858  1.1121  0.8106 -1.2813
  518WAT      O 2072   0.841   4.539   3.730 -0.5014 -0.1858 -0.2157
  518WAT     H1 2073   0.777   4.503   3.791  0.8164 -0.1604  1.2580
  518WAT     H2 2074   0.925   4.510   3.764  0.3039 -0.2062 -2.0823
  519WAT      O 2075   3.745   5.939   3.778 -0.1425 -0.3720  0.4125
  519WAT     H1 2076   3.753   5.961   3.871 -0.7473 -0.8469  0.5819
  519WAT     H2 2077   3.771   5.847   3.773 -2.3235 -1.0436  0.4954
  520WAT      O 2078   5.681   3.968   5.124 -0.0161  0.2143  0.4096
  520WAT     H1 2079   5.648   4.035   5.063 -1.6911 -0.7991  0.1337
  520WAT     H2 2080   5.774   3.988   5.133  0.2586  0.6212 -2.2535
  521WAT      O 2081   3.676   4.174   2.586 -0.3344 -0.1413  0.3113
  521WAT     H1 2082   3.625   4.213   2.657 -2.7165  0.7334 -1.7082
  521WAT     H2 2083   3.612   4.123   2.536  1.2094 -0.6628 -1.2524
  522WAT      O 2084   5.811   4.072   2.361 -0.6641 -0.1874 -0.0492
  522WAT     H1 2085   5.789   3.991   2.407 -1.6651  0.3772  0.4997
  522WAT     H2 2086   5.906   4.076   2.363 -0.6617 -0.0704  2.2079
  523WAT      O 2087   0.123   3.501   4.351 -0.0210 -0.4751  0.0416
  523WAT     H1 2088   0.060   3.569   4.332  1.7734  0.5477 -2.9206
  523WAT     H2 2089   0.096   3.427   4.296  1.0096 -0.2120 -0.8458
  524WAT      O 2090   5.710   4.708   2.921 -0.2718 -0.6303  0.3853
  524WAT     H1 2091   5.747   4.653   2.852  0.2072  0.1064  0.0456
  524WAT     H2 2092   5.757   4.682   3.000 -0.4110 -1.0674  0.3269
  525WAT      O 2093   7.050   2.585   4.193  0.2562  0.2056  0.0870
  525WAT     H1 2094   7.051   2.681   4.191  0.6836  0.1884 -0.8561
  525WAT     H2 2095   7.015   2.560   4.108  3.1551 -0.5047 -1.0067
  526WAT      O 2096   5.763   5.528   2.442  0.1414  0.5787 -0.3591
  526WAT     H1 2097   5.808   5.529   2.527 -0.0246  0.2121 -0.2686
  526WAT     H2 2098   5.816   5.470   2.388  0.2370  0.7984 -0.5057
  527WAT      O 2099   7.037   4.452   1.226 -0.3123 -0.0393 -0.8013
  527WAT     H1 2100   7.062   4.415   1.142  0.8141  1.3801 -1.1265
  527WAT     H2 2101   6.996   4.536   1.205  0.0105  0.3456  0.0598
  528WAT      O 2102   7.045   3.111   0.147  0.3523 -0.0942  0.2480
  528WAT     H1 2103   7.052   3.026   0.192  1.8698  1.4344  3.2549
  528WAT     H2 2104   7.122   3.113   0.089  0.6010 -0.5686  0.5500
  529WAT      O 2105   0.325   3.192   2.932 -0.2468  0.5002 -0.1522
  529WAT     H1 2106   0.285   3.278   2.918  0.2934  0.5916 -1.2234
  529WAT     H2 2107   0.416   3.204   2.904 -0.8817 -1.2029 -3.3356
  530WAT      O 2108   6.374   2.645   5.802  0.1682  0.3565  0.5634
  530WAT     H1 2109   6.293   2.597   5.816 -0.0318 -0.6241 -2.8879
  530WAT     H2 2110   6.443   2.579   5.816  0.0514 -0.1392 -0.9344
  531WAT      O 2111   0.182   4.195   2.819  0.0998  0.0980  0.0693
  531WAT     H1 2112   0.229   4.144   2.885 -0.8088 -1.3898 -0.3778
  531WAT     H2 2113   0.126   4.254   2.869  0.6019  0.1267  0.6049
  532WAT      O 2114   4.850   4.291   4.534 -0.4019  0.7139  0.1902
  532WAT     H1 2115   4.776   4.247   4.493 -1.5855  1.0856  1.8405
  532WAT     H2 2116   4.903   4.322   4.460 -2.3696  1.2639 -1.0560
  533WAT      O 2117   4.864   4.710   4.620 -1.0532  0.2924  0.7628
  533WAT     H1 2118   4.774   4.703   4.652 -1.2323 -1.7225 -0.0713
  533WAT     H2 2119   4.904   4.625   4.641 -0.1468  0.1758 -1.2185
  534WAT      O 2120   1.196   5.261   2.615  0.5277  0.4938  0.1252
  534WAT     H1 2121   1.125   5.307   2.660 -0.1001  0.3726 -0.7149
  534WAT     H2 2122   1.161   5.243   2.527  0.8017 -1.4406  0.3721
  535WAT      O 2123   7.256   3.162   3.243  0.4211  0.6209 -0.0378
  535WAT     H1 2124   7.303   3.136   3.164 -0.4946  0.3846 -0.5151
  535WAT     H2 2125   7.181   3.103   3.247  2.3092 -1.9043  2.9925
  536WAT      O 2126   7.003   4.163   4.548  0.3106  0.4731 -1.1540
  536WAT     H1 2127   6.953   4.110   4.485 -2.2864  3.2860 -1.6690
  536WAT     H2 2128   7.045   4.230   4.494 -0.9260  2.1720 -0.0761
  537WAT      O 2129   7.325   3.812   4.612 -0.2030 -0.7929 -0.7673
  537WAT     H1 2130   7.373   3.834   4.532  0.2193 -1.1355 -0.6159
  537WAT     H2 2131   7.295   3.896   4.646  2.7859 -0.1824  0.6985
  538WAT      O 2132   7.346   3.541   5.041 -0.2740 -0.2698  0.0918
  538WAT     H1 2133   7.261   3.578   5.067  0.6128  1.7258  0.3727
  538WAT     H2 2134   7.384   3.607   4.983  1.1799 -1.0194  0.1545
  539WAT      O 2135   5.868   2.258   3.189  0.0816  0.1794  0.1233
  539WAT     H1 2136   5.799   2.202   3.154  0.7193 -0.2095 -0.5518
  539WAT     H2 2137   5.923   2.198   3.240  1.2754 -0.0313 -1.3357
  540WAT      O 2138   0.608   2.728   4.177  0.1645 -0.0946 -0.0089
  540WAT     H1 2139   0.609   2.635   4.154 -0.0498 -0.7270  2.3032
  540WAT     H2 2140   0.668   2.736   4.250  0.0863  1.5800 -0.0844
  541WAT      O 2141   0.275   4.826   3.244 -0.2455  0.6212  0.2567
  541WAT     H1 2142   0.330   4.759   3.285  0.0889 -0.1073 -1.2861
  541WAT     H2 2143   0.333   4.868   3.180 -1.1492  0.6255 -0.5859
  542WAT      O 2144   0.515   3.479   0.678 -0.2811  0.5874  1.1471
  542WAT     H1 2145   0.542   3.569   0.661 -1.0846  0.4672 -1.0877
  542WAT     H2 2146   0.595   3.435   0.707  0.4173  1.7031  0.9847
  543WAT      O 2147   1.961   3.166   5.216  0.8675 -0.0622 -0.0594
  543WAT     H1 2148   1.904   3.160   5.293  0.1082 -1.3192 -0.6890
  543WAT     H2 2149   2.049   3.173   5.252  0.5155 -0.5793  0.9350
  544WAT      O 2150   7.241   2.419   2.493  0.2356 -0.4153  0.5309
  544WAT     H1 2151   7.162   2.467   2.518  0.6438  0.6877 -0.2577
  544WAT     H2 2152   7.212   2.363   2.421 -0.0706 -0.8365  0.9718
  545WAT      O 2153   6.118   5.299   2.890 -0.0490  0.0768 -0.3375
  545WAT     H1 2154   6.142   5.329   2.978 -3.0063  0.8733  0.2911
  545WAT     H2 2155   6.188   5.239   2.866  1.0002  0.0307  2.4378
  546WAT      O 2156   5.210   5.996   3.722 -0.3989  0.2074  0.0829
  546WAT     H1 2157   5.175   5.982   3.634 -1.6807 -1.6085  0.8371
  546WAT     H2 2158   5.135   6.025   3.774  0.5189  2.1208  0.4462
  547WAT      O 2159   0.523   1.388   3.096  0.9669  0.4211  0.0037
  547WAT     H1 2160   0.476   1.359   3.174 -0.3370  1.9397 -0.1508
  547WAT     H2 2161   0.506   1.319   3.031 -2.0560  1.3418 -0.3776
  548WAT      O 2162   7.008   3.597   3.835  0.0685 -0.2605  0.2434
  548WAT     H1 2163   6.946   3.606   3.763  0.9285 -0.1326 -0.5015
  548WAT     H2 2164   7.053   3.514   3.818 -1.7303 -1.7763  2.2607
  549WAT      O 2165   5.913   3.128   4.360  0.6509  0.0676 -0.0242
  549WAT     H1 2166   5.877   3.041   4.344 -0.7550  0.6993 -0.4498
  549WAT     H2 2167   5.926   3.132   4.454 -2.1941  0.4291  0.4396
  550WAT      O 2168   0.113   5.823   4.346  0.0796 -0.0084 -0.3252
  550WAT     H1 2169   0.170   5.795   4.275  0.2002  0.2730 -0.3402
  550WAT     H2 2170   0.149   5.781   4.424  0.3285  0.1924 -0.3292
  551WAT      O 2171   0.343   0.817   2.097  0.4820  0.9331  0.3182
  551WAT     H1 2172   0.274   0.779   2.043  0.2682  0.0074  1.2119
  551WAT     H2 2173   0.384   0.882   2.041 -1.1920  1.6060 -0.1979
  552WAT      O 2174   7.196   3.009   4.361 -0.0573  0.4766  0.3410
  552WAT     H1 2175   7.287   3.008   4.391  0.2599 -1.6995 -0.5494
  552WAT     H2 2176   7.202   3.025   4.266 -0.6193  0.4194  0.2917
  553WAT      O 2177   6.537   5.157   2.945 -0.4875  0.1598 -0.1354
  553WAT     H1 2178   6.517   5.159   2.851 -0.5423  0.9117 -0.1159
  553WAT     H2 2179   6.487   5.231   2.981  0.8385  0.9174  0.2174
  554WAT      O 2180   6.299   4.810   1.880  0.0701 -0.1131 -0.2280
  554WAT     H1 2181   6.257   4.873   1.821  1.6472  1.8253  0.6195
  554WAT     H2 2182   6.242   4.806   1.956  0.7830  1.6018  0.4204
  555WAT      O 2183   6.920   4.872   3.517  0.3081 -0.7926  0.0427
  555WAT     H1 2184   6.983   4.906   3.581  1.0157 -2.3469  0.2149
  555WAT     H2 2185   6.850   4.937   3.516  1.5706  0.6303  0.3618
  556WAT      O 2186   0.272   2.939   2.953 -0.0335  0.0137 -0.2698
  556WAT     H1 2187   0.287   3.033   2.965 -0.0907  0.4597 -2.9608
  556WAT     H2 2188   0.224   2.934   2.870 -2.3415 -2.2579  1.0808
  557WAT      O 2189   7.132   3.357   3.789  0.3787  0.4465  0.3107
  557WAT     H1 2190   7.085   3.349   3.706  1.0851  3.3150 -0.4734
  557WAT     H2 2191   7.224   3.366   3.763  0.4659  2.9581  1.1896
  558WAT      O 2192   1.318   4.731   5.236  0.0502  0.2116 -0.4558
  558WAT     H1 2193   1.248   4.783   5.197 -1.6556 -1.3050  0.3846
  558WAT     H2 2194   1.340   4.666   5.170 -1.7696 -1.4029  0.4223
  559WAT      O 2195   1.017   2.345   4.930  0.0760  0.1098 -0.2160
  559WAT     H1 2196   0.934   2.330   4.975 -0.0085 -1.3552 -0.8053
  559WAT     H2 2197   0.992   2.366   4.840  0.3094  1.2669 -0.0294
  560WAT      O 2198   5.583   2.528   3.672 -0.1022 -0.4691 -0.3263
  560WAT     H1 2199   5.566   2.570   3.588  0.2737 -1.0064 -0.6732
  560WAT     H2 2200   5.660   2.573   3.706  0.2170 -0.7854 -0.6321
  561WAT      O 2201   6.807   1.995   4.330 -0.1345 -0.5015 -0.1606
  561WAT     H1 2202   6.813   2.065   4.396  0.4327 -0.4914 -0.2169
  561WAT     H2 2203   6.858   2.028   4.256 -0.3108 -0.7522 -0.3944
  562WAT      O 2204   6.741   3.497   1.340 -0.1710 -0.3223 -0.9372
  562WAT     H1 2205   6.687   3.496   1.261 -1.1667  0.6826 -0.3028
  562WAT     H2 2206   6.680   3.482   1.412 -0.3415  3.9672  0.1242
  563WAT      O 2207   5.350   4.406   3.642 -0.3802  0.4197 -0.6359
  563WAT     H1 2208   5.328   4.384   3.551 -1.3399  1.6157 -0.7155
  563WAT     H2 2209   5.401   4.487   3.635 -2.2931  1.7401 -0.0261
  564WAT      O 2210   6.287   3.631   2.769 -0.4136  0.0004 -0.4979
  564WAT     H1 2211   6.193   3.646   2.774 -0.7437 -2.1472  0.8889
  564WAT     H2 2212   6.317   3.631   2.859  0.8037 -0.0723 -0.8815
  565WAT      O 2213   1.546   3.793   5.082  0.2215 -0.3932  0.1697
  565WAT     H1 2214   1.603   3.840   5.142  0.9129  0.0281 -0.7877
  565WAT     H2 2215   1.591   3.711   5.064 -0.9520 -1.4473  1.7841
  566WAT      O 2216   7.213   3.380   3.360  0.0054  0.4651 -0.5777
  566WAT     H1 2217   7.236   3.293   3.328  0.3086  0.2071  0.3042
  566WAT     H2 2218   7.117   3.379   3.367  0.0260  0.1336 -0.3688
  567WAT      O 2219   6.562   0.781   2.692 -0.7136 -0.2940  0.3403
  567WAT     H1 2220   6.547   0.856   2.749  0.0548  0.7129 -0.7464
  567WAT     H2 2221   6.474   0.757   2.660 -0.8636  0.7667 -0.0649
  568WAT      O 2222   0.456   4.725   2.807  0.1718 -0.0686 -0.3693
  568WAT     H1 2223   0.509   4.667   2.861 -0.3330 -0.2540 -0.0672
  568WAT     H2 2224   0.391   4.668   2.766 -0.4400  0.2946  0.0660
  569WAT      O 2225   0.257   4.054   4.359 -0.3146  0.1422 -0.3085
  569WAT     H1 2226   0.164   4.065   4.372 -0.0657  0.9320  0.8542
  569WAT     H2 2227   0.291   4.027   4.444  0.4261 -0.8713 -0.8902
  570WAT      O 2228   5.485   4.823   5.583  0.1945 -0.1502  0.8192
  570WAT     H1 2229   5.440   4.860   5.507  0.7632 -0.3684  0.3662
  570WAT     H2 2230   5.437   4.742   5.602  0.0418 -0.0887  0.6944
  571WAT      O 2231   6.593   5.028   3.878  0.2618 -0.7471 -0.0519
  571WAT     H1 2232   6.590   4.932   3.876  4.2355 -1.0895  1.4136
  571WAT     H2 2233   6.646   5.052   3.802  0.4220  0.1426  0.3218
  572WAT      O 2234   0.850   3.054   5.621 -0.0483  0.3091 -0.0328
  572WAT     H1 2235   0.789   3.125   5.638 -3.4214 -2.3953  0.3577
  572WAT     H2 2236   0.836   3.032   5.529 -1.3148 -1.5888  0.5392
  573WAT      O 2237   6.978   2.868   5.332 -0.0923  0.4451 -0.0771
  573WAT     H1 2238   6.963   2.878   5.426  1.0345 -3.2806  0.6925
  573WAT     H2 2239   7.067   2.900   5.319 -0.1986  0.8415  0.1678
  574WAT      O 2240   5.132   2.938   4.380 -0.7273 -0.3611 -0.2583
  574WAT     H1 2241   5.102   2.856   4.342 -2.2886 -0.0171  0.1622
  574WAT     H2 2242   5.209   2.914   4.432  0.0204 -1.2101 -1.6962
  575WAT      O 2243   5.505   4.526   4.720  0.1211  0.1901 -0.2541
  575WAT     H1 2244   5.482   4.552   4.631  0.5503  1.8603  0.0810
  575WAT     H2 2245   5.596   4.556   4.732  1.3334 -3.0355 -0.3469
  576WAT      O 2246   7.002   0.178   2.461 -0.2392 -0.5947 -0.3597
  576WAT     H1 2247   6.940   0.244   2.429  0.2549 -0.2253 -0.5673
  576WAT     H2 2248   6.946   0.108   2.496 -0.7878 -0.7885 -1.5739
  577WAT      O 2249   5.889   0.738   3.664  0.7493 -0.4436 -0.0181
  577WAT     H1 2250   5.968   0.710   3.617  0.8059  2.0198 -1.5737
  577WAT     H2 2251   5.865   0.662   3.717  3.9609 -1.4015  0.2889
  578WAT      O 2252   1.371   2.570   4.646  0.1002  0.5161 -0.0978
  578WAT     H1 2253   1.312   2.499   4.670 -0.9402  0.7866 -1.7634
  578WAT     H2 2254   1.315   2.635   4.604  1.3639  1.4027 -0.4642
  579WAT      O 2255   4.014   4.782   3.880 -0.0788  0.3204  0.3893
  579WAT     H1 2256   3.994   4.849   3.946 -3.6772 -1.6771  1.5723
  579WAT     H2 2257   3.969   4.812   3.801  2.1287  1.4296 -0.5483
  580WAT      O 2258   1.128   4.612   2.975  0.1012 -0.0873 -0.1006
  580WAT     H1 2259   1.142   4.706   2.976  0.7853 -0.1756  1.0495
  580WAT     H2 2260   1.056   4.597   3.037  1.9845 -0.5313  2.1413
  581WAT      O 2261   4.764   0.474   2.513 -0.3338  0.0878 -0.4240
  581WAT     H1 2262   4.681   0.431   2.533 -1.0264  1.8708  0.7015
  581WAT     H2 2263   4.764   0.484   2.418 -0.0953 -2.3885 -0.7646
  582WAT      O 2264   0.970   3.661   4.929 -0.2474  0.3675 -0.2907
  582WAT     H1 2265   1.024   3.740   4.938 -0.1570  0.1529  1.3218
  582WAT     H2 2266   0.880   3.692   4.940 -0.2793  0.3709 -0.5553
  583WAT      O 2267   6.170   2.984   3.994  0.2170  0.4660  0.2250
  583WAT     H1 2268   6.257   2.986   3.954 -0.0883 -1.1505 -0.6028
  583WAT     H2 2269   6.143   3.075   3.996  2.1641  1.0830  1.0660
  584WAT      O 2270   7.251   4.831   2.796 -0.1178  0.0484 -0.3264
  584WAT     H1 2271   7.231   4.892   2.867  0.0781 -1.1400  0.8002
  584WAT     H2 2272   7.299   4.760   2.839  1.4098  0.0379 -1.9408
  585WAT      O 2273   5.046   2.918   3.818  0.3087  0.4189  0.2865
  585WAT     H1 2274   5.084   2.957   3.739  2.2390 -0.7940  0.5647
  585WAT     H2 2275   5.055   2.986   3.885  2.4192  0.0447  0.4417
  586WAT      O 2276   7.172   3.937   3.701  0.4827 -0.1547  0.1977
  586WAT     H1 2277   7.120   3.867   3.741  0.6299  0.5901  1.7745
  586WAT     H2 2278   7.204   3.900   3.619  0.5603 -1.9414  0.9932
  587WAT      O 2279   5.175   0.715   4.550 -0.0752  0.2936 -0.3086
  587WAT     H1 2280   5.131   0.645   4.598 -0.8329 -0.5379 -2.1417
  587WAT     H2 2281   5.113   0.789   4.553 -0.1606  0.2127 -0.0852
  588WAT      O 2282   0.402   3.450   5.043  0.7204  0.6698 -0.0667
  588WAT     H1 2283   0.383   3.483   5.130 -0.6702 -2.1881  0.8472
  588WAT     H2 2284   0.321   3.462   4.994 -0.8649 -3.4660  1.1231
  589WAT      O 2285   6.521   5.383   3.472 -0.0424 -0.3189 -0.1388
  589WAT     H1 2286   6.584   5.382   3.544  0.6023 -1.9311 -0.6874
  589WAT     H2 2287   6.436   5.373   3.514  0.2139 -0.0294  0.4673
  590WAT      O 2288   6.927   3.049   2.572  0.5663 -0.0993  0.1471
  590WAT     H1 2289   6.874   3.085   2.643  1.4165  1.9776 -0.1828
  590WAT     H2 2290   6.871   3.056   2.495  0.4541 -0.2107  0.2180
  591WAT      O 2291   6.760   3.122   4.681  0.6306  0.0033  0.7691
  591WAT     H1 2292   6.763   3.206   4.727  1.1362 -0.6214  1.9075
  591WAT     H2 2293   6.851   3.105   4.656  0.9865 -1.3463  2.7299
  592WAT      O 2294   6.481   4.350   0.840 -0.1592 -0.0365  0.4254
  592WAT     H1 2295   6.387   4.370   0.842 -0.3431 -0.4945 -1.7337
  592WAT     H2 2296   6.518   4.417   0.782  0.7187 -0.3468  0.6196
  593WAT      O 2297   7.172   3.681   4.030 -0.1589  0.1437 -0.2820
  593WAT     H1 2298   7.252   3.685   3.977 -1.4955  1.2995 -2.3721
  593WAT     H2 2299   7.105   3.648   3.970 -1.1356 -1.5475  1.6386
  594WAT      O 2300   6.597   4.594   3.612  0.9285 -0.6077 -0.0084
  594WAT     H1 2301   6.674   4.597   3.669  1.7951 -0.4155 -1.1620
  594WAT     H2 2302   6.594   4.680   3.570  0.7386 -0.9969 -0.8152
  595WAT      O 2303   6.987   4.770   2.784 -0.1938 -0.1684 -0.5131
  595WAT     H1 2304   7.075   4.774   2.747 -0.2072  0.0599 -0.5228
  595WAT     H2 2305   6.977   4.854   2.830  0.0914 -0.7356  0.6169
  596WAT      O 2306   6.442   3.065   4.806  0.2266  0.0833  0.4342
  596WAT     H1 2307   6.453   2.994   4.869  1.3735  0.7292  0.9942
  596WAT     H2 2308   6.452   3.145   4.859 -0.7133  0.6706 -0.2337
  597WAT      O 2309   4.774   5.386   4.589  0.3087  0.2011  0.0166
  597WAT     H1 2310   4.811   5.298   4.593  0.4150  0.2391 -0.1497
  597WAT     H2 2311   4.703   5.379   4.525 -0.2145  0.0386  0.5986
  598WAT      O 2312   0.430   3.451   1.030 -0.3570  0.0980  0.4621
  598WAT     H1 2313   0.517   3.419   1.057 -1.1237 -2.2650  0.3531
  598WAT     H2 2314   0.374   3.373   1.033 -2.1241  1.2349 -1.0398
  599WAT      O 2315   0.614   3.277   2.060 -0.1244 -0.1887 -0.0226
  599WAT     H1 2316   0.536   3.229   2.088  1.3580 -2.5779  0.2392
  599WAT     H2 2317   0.670   3.280   2.137  0.8425 -0.1784 -0.7120
  600WAT      O 2318   6.685   3.082   2.410 -0.1691  0.4425  0.1084
  600WAT     H1 2319   6.640   3.141   2.470 -0.9364 -0.7859  0.7731
  600WAT     H2 2320   6.619   3.057   2.346  0.7422  2.0510 -1.5431
  601WAT      O 2321   5.513   5.301   1.113  0.7574  0.0883 -0.3622
  601WAT     H1 2322   5.526   5.346   1.029 -0.9062 -0.8441 -1.1719
  601WAT     H2 2323   5.517   5.208   1.091  0.6432 -0.1650  0.6570
  602WAT      O 2324   6.787   2.958   3.082 -0.0507 -0.2623  0.1333
  602WAT     H1 2325   6.733   2.983   3.006  0.7090 -1.4540 -0.8492
  602WAT     H2 2326   6.812   3.040   3.122 -1.1196  0.3771 -0.4441
  603WAT      O 2327   3.883   2.940   1.095 -0.2870  0.0450  0.2564
  603WAT     H1 2328   3.838   3.020   1.071 -0.7229 -0.2941 -0.0860
  603WAT     H2 2329   3.861   2.925   1.187  0.8551  1.0013  0.7148
  604WAT      O 2330   4.568   3.443   2.650 -0.1588 -0.1124 -0.5080
  604WAT     H1 2331   4.608   3.391   2.721 -0.7693 -0.4027 -0.3730
  604WAT     H2 2332   4.487   3.398   2.630 -0.8039  0.8941 -0.2560
  605WAT      O 2333   6.171   4.030   2.700  0.0276  0.5582 -0.5159
  605WAT     H1 2334   6.257   4.050   2.663 -0.0011 -0.7496 -1.3428
  605WAT     H2 2335   6.136   4.115   2.727  0.1423  1.5874 -3.2942
  606WAT      O 2336   6.410   4.708   1.442  0.0915 -0.2033  0.4845
  606WAT     H1 2337   6.401   4.678   1.352  1.2741  1.1482 -0.1163
  606WAT     H2 2338   6.321   4.703   1.478 -1.2517  2.8724 -1.9550
  607WAT      O 2339   6.659   2.753   2.157 -0.0173  0.3376  0.0544
  607WAT     H1 2340   6.672   2.711   2.072  0.3764  0.5188  0.0224
  607WAT     H2 2341   6.601   2.693   2.204  0.3237 -0.1139 -0.0919
  608WAT      O 2342   5.765   2.780   1.800 -0.7616 -0.5168  0.1074
  608WAT     H1 2343   5.672   2.767   1.819 -0.5874  0.8431  2.1385
  608WAT     H2 2344   5.776   2.875   1.797  0.8009 -0.6226  1.2398
  609WAT      O 2345   5.803   3.767   0.086  0.1018  0.2156  0.1127
  609WAT     H1 2346   5.763   3.705   0.146 -0.6314  1.2105  0.6892
  609WAT     H2 2347   5.876   3.805   0.136  0.3740  0.0144 -0.1341
  610WAT      O 2348   6.355   2.320   2.380  0.2681  0.0061 -0.1481
  610WAT     H1 2349   6.348   2.274   2.296  1.6203 -1.5641  0.5330
  610WAT     H2 2350   6.269   2.310   2.420  0.4486 -1.7755 -0.1307
  611WAT      O 2351   4.926   4.192   3.965 -0.0809  0.5651 -0.4239
  611WAT     H1 2352   5.020   4.183   3.983 -0.3851 -0.0767  0.9585
  611WAT     H2 2353   4.917   4.166   3.873  0.7092 -2.4269  0.2224
  612WAT      O 2354   5.025   3.553   2.502  0.2003  1.0200  0.0703
  612WAT     H1 2355   4.965   3.622   2.532  2.9959  2.9675  1.6464
  612WAT     H2 2356   5.110   3.577   2.540  1.3604 -3.4470  0.8820
  613WAT      O 2357   7.407   4.189   1.238  0.6741 -0.3227 -0.3712
  613WAT     H1 2358   7.333   4.227   1.285  1.1820  0.3314 -0.0837
  613WAT     H2 2359   7.431   4.111   1.289  0.3500 -0.3942 -0.3270
  614WAT      O 2360   1.582   4.367   1.000  0.0596  0.4235 -0.7353
  614WAT     H1 2361   1.489   4.379   1.020  0.1671 -0.4726  0.4664
  614WAT     H2 2362   1.583   4.317   0.918 -0.6453 -1.9934  0.6097
  615WAT      O 2363   0.245   3.213   4.801 -0.3418  0.1753 -0.6097
  615WAT     H1 2364   0.212   3.284   4.746  0.7302  1.6382  0.5763
  615WAT     H2 2365   0.338   3.232   4.813 -0.2288 -0.9323  0.4669
  616WAT      O 2366   0.254   5.763   4.109  0.3365  0.6166 -0.4055
  616WAT     H1 2367   0.256   5.851   4.072  1.3344  0.2815 -1.1977
  616WAT     H2 2368   0.180   5.720   4.066  2.1489 -0.1326 -2.9920
  617WAT      O 2369   0.791   3.237   3.787  0.5176  0.1004 -0.3519
  617WAT     H1 2370   0.846   3.209   3.860 -1.3220  0.0988  1.0901
  617WAT     H2 2371   0.793   3.164   3.726  0.4704 -0.7488  0.6353
  618WAT      O 2372   0.716   5.289   3.667 -0.0674  0.4928  0.1643
  618WAT     H1 2373   0.801   5.307   3.627  0.7503  0.2228  1.7245
  618WAT     H2 2374   0.737   5.260   3.755 -1.7612 -0.1945  0.3682
  619WAT      O 2375   4.128   5.764   0.608 -0.0603 -0.4621  0.3557
  619WAT     H1 2376   4.061   5.742   0.543 -1.1767  0.5751  1.1199
  619WAT     H2 2377   4.200   5.801   0.556 -1.2182  1.0297 -0.2728
  620WAT      O 2378   5.934   5.117   1.730 -0.0868  0.2167  0.3011
  620WAT     H1 2379   5.998   5.049   1.708  0.1942  0.5900 -0.0484
  620WAT     H2 2380   5.985   5.197   1.735 -0.1564  0.1708  2.2444
  621WAT      O 2381   6.682   4.012   2.020  0.2206  0.3223 -0.2981
  621WAT     H1 2382   6.659   4.047   2.106  1.0845  2.2166 -0.7960
  621WAT     H2 2383   6.603   3.966   1.991 -0.7479  1.3079  0.6855
  622WAT      O 2384   0.061   3.153   0.490  0.2808  0.4096  0.5574
  622WAT     H1 2385   0.069   3.240   0.530  0.1300 -0.2563  2.1119
  622WAT     H2 2386   0.146   3.111   0.505 -0.0411 -0.1340  0.9271
  623WAT      O 2387   1.182   4.083   4.794 -0.0987 -0.3329  0.1870
  623WAT     H1 2388   1.246   4.017   4.767 -0.8756 -0.9699 -0.1064
  623WAT     H2 2389   1.232   4.165   4.793  0.1501 -0.4343 -2.3457
  624WAT      O 2390   7.160   3.622   3.058 -0.2151  0.1414 -0.6719
  624WAT     H1 2391   7.195   3.645   3.144  0.6464 -0.3455 -0.8704
  624WAT     H2 2392   7.208   3.542   3.035 -1.8632 -0.8732 -0.7330
  625WAT      O 2393   0.030   2.223   5.848 -0.2250  0.5529  0.3942
  625WAT     H1 2394   0.105   2.257   5.800 -0.2005 -1.0646 -0.8088
  625WAT     H2 2395  -0.029   2.191   5.779 -0.7566 -0.7036  1.4044
  626WAT      O 2396   0.342   4.431   1.691 -0.7372  0.2390  0.0963
  626WAT     H1 2397   0.258   4.428   1.644 -1.2446 -1.1459  1.0029
  626WAT     H2 2398   0.323   4.481   1.770 -0.6791  0.0482  0.2316
  627WAT      O 2399   0.454   4.892   3.039 -0.4423  0.2274 -0.9710
  627WAT     H1 2400   0.546   4.868   3.044 -0.1618  1.1780 -1.4270
  627WAT     H2 2401   0.425   4.860   2.954 -0.1372  1.2424 -1.4659
  628WAT      O 2402   7.217   3.869   0.325  0.4997 -0.1319  0.5300
  628WAT     H1 2403   7.264   3.940   0.368  1.1703 -0.6682  0.6900
  628WAT     H2 2404   7.128   3.903   0.315  1.4182  1.8820 -1.9976
  629WAT      O 2405   5.901   3.954   1.539 -0.1552  0.0655 -0.3399
  629WAT     H1 2406   5.942   4.002   1.611 -1.5751 -1.6314  1.7536
  629WAT     H2 2407   5.820   4.002   1.521 -0.9278 -0.7320  0.8484
  630WAT      O 2408   1.346   5.815   1.852  0.0230 -0.3266  0.3293
  630WAT     H1 2409   1.426   5.795   1.900 -0.1686 -2.4267 -0.1327
  630WAT     H2 2410   1.313   5.730   1.823 -3.3570  0.2186  2.0176
  631WAT      O 2411   0.900   4.970   2.741 -0.3405 -0.6853  0.2504
  631WAT     H1 2412   0.837   4.921   2.689 -1.8539 -0.6922  1.9765
  631WAT     H2 2413   0.851   5.047   2.772  0.6264 -0.4517  1.2775
  632WAT      O 2414   6.197   4.408   2.556  0.5658 -0.5194 -0.7470
  632WAT     H1 2415   6.212   4.443   2.644 -0.6098 -0.1055 -0.6906
  632WAT     H2 2416   6.252   4.330   2.551 -0.4431 -1.3850  0.8857
  633WAT      O 2417   1.210   1.899   0.623 -0.1515 -0.1741 -0.0140
  633WAT     H1 2418   1.244   1.940   0.544  0.2756  1.2188  0.8568
  633WAT     H2 2419   1.166   1.970   0.670 -1.9444 -1.3576  0.1755
  634WAT      O 2420   6.635   4.633   2.221 -0.2056 -0.3149  0.8331
  634WAT     H1 2421   6.723   4.607   2.194  0.9485  1.0258  2.9704
  634WAT     H2 2422   6.581   4.556   2.206  1.1281 -0.9236 -1.2756
  635WAT      O 2423   7.066   2.794   5.972 -0.3095  0.2278 -0.5534
  635WAT     H1 2424   7.114   2.777   6.052 -2.1282 -0.4252  0.4588
  635WAT     H2 2425   7.113   2.745   5.904  1.1144  0.6054  0.1282
  636WAT      O 2426   5.896   3.699   1.603 -0.3073  0.2098  0.0733
  636WAT     H1 2427   5.889   3.793   1.583  2.6018  0.1935 -1.6144
  636WAT     H2 2428   5.850   3.656   1.531 -0.5762  0.3406  0.1675
  637WAT      O 2429   6.353   5.021   1.502  0.0193 -0.4304 -0.3522
  637WAT     H1 2430   6.342   5.066   1.419  1.3103  1.0817  0.2480
  637WAT     H2 2431   6.448   5.012   1.512 -0.0573  0.3786  1.4320
  638WAT      O 2432   3.202   5.419   1.742 -0.6702  0.5820  0.3565
  638WAT     H1 2433   3.210   5.331   1.704 -0.3093  0.5264  0.5537
  638WAT     H2 2434   3.153   5.469   1.677 -0.4380  0.3703  0.0160
  639WAT      O 2435   5.899   3.928   0.281 -0.0157  0.4217  0.1297
  639WAT     H1 2436   5.972   3.990   0.278  0.6231 -0.2963  0.7041
  639WAT     H2 2437   5.821   3.983   0.270  0.5393  1.3415  0.6775
  640WAT      O 2438   0.050   5.268   1.979  0.3843 -0.6570  1.1035
  640WAT     H1 2439   0.136   5.305   1.963 -0.1017  0.7883  1.6186
  640WAT     H2 2440  -0.004   5.300   1.907 -0.1579  0.0585  1.8102
  641WAT      O 2441   7.372   3.163   1.435  0.1486 -0.3738 -0.2098
  641WAT     H1 2442   7.400   3.210   1.513  1.0420 -0.2799 -0.5870
  641WAT     H2 2443   7.440   3.098   1.420 -0.2579 -0.7074 -0.6422
  642WAT      O 2444   5.827   3.099   1.461  0.0939  0.4293 -0.0872
  642WAT     H1 2445   5.865   3.131   1.543  1.7494 -0.1633 -0.5803
  642WAT     H2 2446   5.805   3.179   1.413  0.3235  0.7919  0.4021
  643WAT      O 2447   0.247   4.390   2.188  0.5990 -0.0981  0.0771
  643WAT     H1 2448   0.319   4.393   2.251 -0.4025 -0.3829  1.2785
  643WAT     H2 2449   0.202   4.474   2.199 -1.3476 -1.2766  1.9707
  644WAT      O 2450   7.201   5.396   2.786 -0.4041 -0.1401  0.1320
  644WAT     H1 2451   7.130   5.452   2.817 -1.4950 -1.4386  0.0760
  644WAT     H2 2452   7.183   5.384   2.693  0.5831  0.4697 -0.1550
  645WAT      O 2453   6.616   3.125   1.771  0.0087 -0.0370 -0.2936
  645WAT     H1 2454   6.708   3.098   1.760  0.1500  0.8866 -1.5523
  645WAT     H2 2455   6.580   3.126   1.683 -0.7283  1.2961 -0.0077
  646WAT      O 2456   4.029   3.909   0.355 -0.2956  0.3356  0.2778
  646WAT     H1 2457   3.966   3.979   0.373 -2.1364 -1.0338 -0.6162
  646WAT     H2 2458   3.993   3.832   0.399 -0.5548 -1.0567 -2.1993
  647WAT      O 2459   0.334   4.779   3.882  0.5392  0.1065  0.0796
  647WAT     H1 2460   0.346   4.871   3.858 -0.2819  1.6916  4.6900
  647WAT     H2 2461   0.244   4.759   3.858  0.2871  0.9775  0.2672
  648WAT      O 2462   0.520   3.802   4.968 -0.2042  0.4989  0.3895
  648WAT     H1 2463   0.574   3.730   5.001  0.0890  1.2957  1.7212
  648WAT     H2 2464   0.462   3.823   5.041 -0.5375  1.3776 -0.1146
  649WAT      O 2465   7.006   2.390   3.016 -0.0337  0.6348  0.4227
  649WAT     H1 2466   7.083   2.442   2.992 -0.4040  1.4783  1.0162
  649WAT     H2 2467   6.953   2.449   3.070 -0.6777 -0.2206  0.7479
  650WAT      O 2468   7.374   3.934   0.686  0.2515 -0.3030 -0.4258
  650WAT     H1 2469   7.390   3.843   0.660 -1.2051 -0.7694  0.2348
  650WAT     H2 2470   7.406   3.940   0.776 -0.7738 -0.5025 -0.0432
  651WAT      O 2471   4.433   3.568   1.607 -0.1760 -0.0718 -0.0300
  651WAT     H1 2472   4.343   3.572   1.640  0.0107 -1.9634  0.7957
  651WAT     H2 2473   4.426   3.522   1.523 -0.1303  1.1054 -0.7069
  652WAT      O 2474   4.131   3.907   2.653 -0.5346  0.1200  0.2166
  652WAT     H1 2475   4.196   3.952   2.598  1.3404 -2.7478 -0.1210
  652WAT     H2 2476   4.052   3.903   2.599 -0.4721  2.0345 -0.1009
  653WAT      O 2477   1.025   4.015   2.151  0.3860 -0.3358 -0.2014
  653WAT     H1 2478   0.947   4.070   2.143  0.2393 -0.1116  2.2572
  653WAT     H2 2479   1.085   4.049   2.084 -1.1787  0.1873 -1.4049
  654WAT      O 2480   6.455   5.066   2.412 -0.7173 -0.1630 -0.2590
  654WAT     H1 2481   6.386   5.088   2.350 -0.7291 -0.0053 -0.1898
  654WAT     H2 2482   6.480   4.976   2.390  0.6520  0.5506 -1.8004
  655WAT      O 2483   0.780   3.391   3.502  0.1062  0.0586  0.1945
  655WAT     H1 2484   0.786   3.298   3.523 -0.6762 -0.0285  0.0423
  655WAT     H2 2485   0.852   3.407   3.440  0.7130 -0.2745  0.8096
  656WAT      O 2486   6.061   5.675   1.449  0.3649 -0.2166  0.1475
  656WAT     H1 2487   6.089   5.609   1.385  1.0650  0.0018  0.2215
  656WAT     H2 2488   5.972   5.697   1.423  0.8505  0.3284 -1.1523
  657WAT      O 2489   0.374   2.019   3.350  0.2621 -0.8510  0.3021
  657WAT     H1 2490   0.460   1.992   3.382  0.4786 -0.2339  0.2515
  657WAT     H2 2491   0.347   2.090   3.409  0.5062  0.0459 -0.6385
  658WAT      O 2492   6.228   3.752   3.703 -0.3183  0.0828  0.1945
  658WAT     H1 2493   6.200   3.677   3.754  1.9545 -0.2531  1.0961
  658WAT     H2 2494   6.148   3.799   3.681 -1.5227 -0.6201  2.7363
  659WAT      O 2495   5.904   2.937   0.190  0.3072  0.3333 -0.1661
  659WAT     H1 2496   5.809   2.935   0.176 -0.0627  0.2691  1.9309
  659WAT     H2 2497   5.926   2.849   0.218  1.4437 -0.3003 -2.7894
  660WAT      O 2498   6.737   2.755   3.273  0.0750 -0.0760 -0.0800
  660WAT     H1 2499   6.777   2.812   3.339 -3.4316  1.7524  0.7542
  660WAT     H2 2500   6.728   2.810   3.195 -1.0201 -0.2703 -0.1134
  661WAT      O 2501   6.726   4.530   0.887 -0.2542  0.5316 -0.1071
  661WAT     H1 2502   6.748   4.603   0.945 -0.4082 -0.6857  1.5763
  661WAT     H2 2503   6.783   4.459   0.916 -0.8020 -0.3188 -1.0446
  662WAT      O 2504   6.634   5.052   1.700  0.0637 -0.2036 -0.0514
  662WAT     H1 2505   6.607   4.995   1.772  0.1033 -0.4749 -0.2503
  662WAT     H2 2506   6.674   4.993   1.636 -1.3117 -0.2000 -0.9658
  663WAT      O 2507   5.731   3.930   1.117 -0.3618  0.1621 -0.4938
  663WAT     H1 2508   5.641   3.935   1.083 -0.5708  0.7513  0.1256
  663WAT     H2 2509   5.782   3.985   1.056 -0.7932  1.4795  0.2865
  664WAT      O 2510   6.329   5.386   1.573 -0.4156  0.1590  0.2201
  664WAT     H1 2511   6.253   5.409   1.626 -0.2569 -1.7460  1.3565
  664WAT     H2 2512   6.400   5.374   1.637  0.2139 -0.5247 -0.5792
  665WAT      O 2513   6.220   3.009   0.741  0.3818  0.2089  0.5669
  665WAT     H1 2514   6.241   3.085   0.687 -0.3866  0.7409  1.0003
  665WAT     H2 2515   6.305   2.968   0.758  0.6673  0.2143 -0.7517
  666WAT      O 2516   7.057   2.974   3.175 -0.3819  0.1243 -0.6497
  666WAT     H1 2517   7.098   2.899   3.216  2.2400  2.3452  1.1231
  666WAT     H2 2518   7.054   2.952   3.082  0.3987 -2.0698 -0.2081
  667WAT      O 2519   5.924   3.073   1.048  0.1298 -0.2363  0.0018
  667WAT     H1 2520   5.918   3.000   1.108 -1.1013 -0.4471 -0.3543
  667WAT     H2 2521   5.835   3.105   1.039  0.1866 -0.4963 -2.0549
  668WAT      O 2522   3.684   5.550   1.533  0.1434  0.8065 -0.2790
  668WAT     H1 2523   3.649   5.560   1.621 -2.3079  2.1616 -1.3040
  668WAT     H2 2524   3.683   5.456   1.517 -2.5862  0.7140  0.0047
  669WAT      O 2525   0.180   1.635   2.965  0.7810 -0.1178 -0.2683
  669WAT     H1 2526   0.169   1.628   3.060 -0.1174 -1.6528 -0.4423
  669WAT     H2 2527   0.091   1.626   2.930  1.2477 -0.8904 -1.3079
  670WAT      O 2528   5.442   3.423   1.358 -0.0256 -0.3787  0.2258
  670WAT     H1 2529   5.449   3.457   1.447 -2.7732 -0.9814  0.7570
  670WAT     H2 2530   5.461   3.498   1.302 -1.4871  0.9004  1.3596
  671WAT      O 2531   4.253   4.431   2.187 -0.2658 -0.0331 -0.6964
  671WAT     H1 2532   4.316   4.371   2.147  0.3237 -0.4870  0.8510
  671WAT     H2 2533   4.189   4.448   2.117  0.1927 -1.5366 -1.5359
  672WAT      O 2534   7.212   4.317   3.422 -0.0286 -0.0637  0.0169
  672WAT     H1 2535   7.284   4.379   3.431  1.9605 -2.3271  0.7952
  672WAT     H2 2536   7.164   4.324   3.505  2.3143 -1.9079  1.6979
  673WAT      O 2537   5.685   2.718   1.245 -0.1041 -0.2615  0.4297
  673WAT     H1 2538   5.755   2.781   1.231  0.3075 -1.0946 -1.5922
  673WAT     H2 2539   5.674   2.675   1.160 -2.6194 -0.6286  0.8769
  674WAT      O 2540   7.082   4.479   4.123  0.0355 -0.3182 -0.3367
  674WAT     H1 2541   6.988   4.496   4.122  0.0250 -0.1659 -2.3942
  674WAT     H2 2542   7.106   4.476   4.030  1.6338 -2.8263  0.0774
  675WAT      O 2543   6.165   3.730   0.885 -0.1153  0.2331 -0.5222
  675WAT     H1 2544   6.202   3.653   0.843 -1.4647 -0.6900 -0.0977
  675WAT     H2 2545   6.236   3.765   0.939  0.6911 -0.3547 -1.1862
  676WAT      O 2546   0.470   3.771   3.436 -0.0906  0.1369 -0.2032
  676WAT     H1 2547   0.532   3.705   3.466 -1.0648 -0.6334  0.1861
  676WAT     H2 2548   0.483   3.846   3.494 -2.4962 -1.5936  2.8993
  677WAT      O 2549   0.421   2.197   2.069 -1.1237  0.5270 -0.1251
  677WAT     H1 2550   0.386   2.122   2.117 -1.3236 -0.6262 -1.9689
  677WAT     H2 2551   0.374   2.272   2.104 -2.8001 -0.5272  0.0071
  678WAT      O 2552   5.059   4.085   3.099 -0.2917 -0.0001 -0.2778
  678WAT     H1 2553   5.102   4.105   3.015 -0.9671  0.0097 -0.6257
  678WAT     H2 2554   4.975   4.046   3.074 -0.0149 -1.0476  0.3995
  679WAT      O 2555   6.049   4.216   2.840  0.2767 -0.1065  0.1138
  679WAT     H1 2556   6.079   4.216   2.931 -1.8361 -0.2929  0.8664
  679WAT     H2 2557   6.023   4.306   2.822 -0.5849 -0.3408  0.1562
  680WAT      O 2558   1.688   5.531   5.070 -0.8129 -0.1674  0.3937
  680WAT     H1 2559   1.638   5.498   5.145 -0.5393  0.3041  0.7890
  680WAT     H2 2560   1.771   5.559   5.107 -0.0326 -1.4279 -0.3375
  681WAT      O 2561   0.627   3.775   4.298 -0.2815 -0.4894  0.2221
  681WAT     H1 2562   0.576   3.844   4.255 -1.1526 -0.7217  0.8540
  681WAT     H2 2563   0.564   3.731   4.356  0.3798 -1.4903  0.2080
  682WAT      O 2564   7.319   3.397   1.765 -0.2267 -0.0701 -0.0007
  682WAT     H1 2565   7.300   3.457   1.693 -1.3599 -1.0866 -0.5800
  682WAT     H2 2566   7.346   3.454   1.837 -0.9559  1.1099 -0.6356
  683WAT      O 2567   5.713   4.283   0.907  0.5658  0.2931 -0.3146
  683WAT     H1 2568   5.757   4.358   0.946 -1.4923  1.2281  0.3415
  683WAT     H2 2569   5.687   4.228   0.981 -0.8803  0.6491 -0.5299
  684WAT      O 2570   3.369   2.548   2.324 -0.0592  0.3700 -0.2723
  684WAT     H1 2571   3.318   2.467   2.326  0.4765  0.0109 -0.9073
  684WAT     H2 2572   3.401   2.554   2.234  0.9486  0.6292  0.0896
  685WAT      O 2573   7.165   3.986   1.333  0.4776 -0.3714 -0.3782
  685WAT     H1 2574   7.250   3.951   1.357  0.8287  0.3582 -0.5274
  685WAT     H2 2575   7.176   4.015   1.242 -0.4518 -1.9135 -1.0165
  686WAT      O 2576   6.275   3.736   2.056  0.5597 -0.3879 -0.1475
  686WAT     H1 2577   6.255   3.723   2.148  1.9132 -0.7510  0.1218
  686WAT     H2 2578   6.343   3.671   2.036  1.4350  0.7221 -0.9674
  687WAT      O 2579   4.550   1.743   1.368 -0.5406  0.3005 -0.0363
  687WAT     H1 2580   4.641   1.766   1.346 -0.7472  2.1994  0.9091
  687WAT     H2 2581   4.555   1.708   1.456 -0.7199  0.3221 -0.0172
  688WAT      O 2582   4.961   3.940   2.186 -0.1775 -0.0252 -0.1707
  688WAT     H1 2583   4.940   3.847   2.198  0.8963 -0.8633 -3.6313
  688WAT     H2 2584   5.055   3.945   2.200 -0.5271  1.1156  2.3035
  689WAT      O 2585   0.221   2.771   1.895 -0.1106 -0.3446 -0.6444
  689WAT     H1 2586   0.186   2.731   1.815  1.1388  0.0133 -1.3976
  689WAT     H2 2587   0.175   2.727   1.966 -1.6740 -0.2681 -1.5607
  690WAT      O 2588   0.882   5.313   4.462  0.2084  0.2716 -1.0824
  690WAT     H1 2589   0.938   5.248   4.505 -1.2104 -0.7556 -0.7205
  690WAT     H2 2590   0.828   5.263   4.402 -0.0165  1.3024 -1.7674
  691WAT      O 2591   5.308   5.258   1.338  0.2966  0.0855 -0.0495
  691WAT     H1 2592   5.220   5.270   1.302  0.3339 -1.4422 -0.7057
  691WAT     H2 2593   5.366   5.289   1.268  0.3163 -0.7332 -0.4018
  692WAT      O 2594   5.298   4.247   0.546 -0.0129 -0.3859  0.0639
  692WAT     H1 2595   5.345   4.173   0.506 -0.2035 -0.0666 -0.7769
  692WAT     H2 2596   5.358   4.281   0.613  0.6107 -0.5010 -0.4273
  693WAT      O 2597   5.626   2.872   4.424  0.3766  0.4945  0.0491
  693WAT     H1 2598   5.640   2.880   4.518  1.1121  0.9211 -0.0878
  693WAT     H2 2599   5.714   2.861   4.388  0.1037  0.3841 -0.5970
  694WAT      O 2600   6.661   5.961   3.391  0.5246 -0.0502 -0.1612
  694WAT     H1 2601   6.671   5.872   3.423  0.0881 -0.2094 -0.4537
  694WAT     H2 2602   6.569   5.967   3.365 -0.0670  1.1972  1.9657
  695WAT      O 2603   5.588   4.849   2.298  0.2077  0.0052 -0.0852
  695WAT     H1 2604   5.623   4.791   2.365  2.0258  0.6266 -0.4359
  695WAT     H2 2605   5.493   4.836   2.302  0.2893 -0.3777  2.2289
  696WAT      O 2606   5.537   3.694   1.758  0.6715  0.0793  0.3802
  696WAT     H1 2607   5.528   3.736   1.672  0.5195 -0.5215  0.0930
  696WAT     H2 2608   5.534   3.766   1.821  0.5225  0.5017 -0.1053
  697WAT      O 2609   0.084   2.424   2.632 -0.1715 -0.2050  0.7945
  697WAT     H1 2610   0.110   2.339   2.669 -0.9841  0.2488  2.5048
  697WAT     H2 2611  -0.009   2.413   2.610  0.8416 -1.4471 -4.1818
  698WAT      O 2612   7.052   2.714   1.092 -0.0796 -0.0842 -0.3358
  698WAT     H1 2613   7.119   2.646   1.103  0.4279 -0.0460 -2.6565
  698WAT     H2 2614   7.003   2.687   1.015 -2.6031  0.0698  1.0985
  699WAT      O 2615   6.313   3.459   1.178 -0.3355  0.0062  0.2092
  699WAT     H1 2616   6.330   3.495   1.091  1.0013 -0.4029  0.2742
  699WAT     H2 2617   6.370   3.508   1.236 -0.3563 -0.5123  0.6773
  700WAT      O 2618   6.840   4.218   1.889  0.2554  0.0828 -0.1141
  700WAT     H1 2619   6.769   4.178   1.939 -0.8823  0.6648 -1.1951
  700WAT     H2 2620   6.855   4.302   1.932 -0.8988  0.6959 -0.8625
  701WAT      O 2621   0.041   1.998   2.327 -0.6558  0.4020 -0.2433
  701WAT     H1 2622   0.008   2.088   2.318 -0.1332  0.5030 -1.3928
  701WAT     H2 2623  -0.038   1.944   2.334 -1.0041  0.8766 -0.4198
  702WAT      O 2624   5.620   4.330   1.941  0.3327  0.4569 -0.3591
  702WAT     H1 2625   5.561   4.258   1.917  0.1970 -0.0527  1.3685
  702WAT     H2 2626   5.579   4.408   1.904 -0.8488 -0.0299 -0.1364
  703WAT      O 2627   0.198   3.738   3.641 -0.4467 -0.4560 -0.4133
  703WAT     H1 2628   0.210   3.675   3.711 -1.6551 -0.7110 -0.4233
  703WAT     H2 2629   0.208   3.687   3.560  1.8253 -0.0086 -0.4993
  704WAT      O 2630   0.925   2.715   2.734  0.0940 -0.1026  0.0660
  704WAT     H1 2631   0.964   2.718   2.646  0.3986  0.0347  0.2043
  704WAT     H2 2632   0.831   2.720   2.718  0.1654  0.3910 -0.2293
  705WAT      O 2633   1.381   3.898   2.613  0.3139  0.5399  0.2300
  705WAT     H1 2634   1.328   3.970   2.646 -0.8101 -0.5353  0.8638
  705WAT     H2 2635   1.419   3.931   2.531 -2.3518  0.9632 -0.9367
  706WAT      O 2636   5.961   4.426   1.274  0.2238  0.3958  0.1179
  706WAT     H1 2637   6.024   4.354   1.274  0.7729  0.8679  0.2311
  706WAT     H2 2638   6.012   4.502   1.301 -0.4802  0.7122  0.5812
  707WAT      O 2639   4.835   3.640   5.888  0.1039  0.2075  0.0618
  707WAT     H1 2640   4.773   3.677   5.825 -0.3017 -0.4504  0.0663
  707WAT     H2 2641   4.782   3.585   5.945  0.9109 -1.6415 -0.9026
  708WAT      O 2642   7.398   4.357   0.851  0.0289  0.2297  0.3697
  708WAT     H1 2643   7.410   4.321   0.939  0.7025 -3.6083 -1.1000
  708WAT     H2 2644   7.479   4.336   0.805 -0.4487  1.8064 -1.3255
  709WAT      O 2645   6.925   2.836   5.607 -0.0942  0.3880 -0.5828
  709WAT     H1 2646   6.954   2.890   5.681  0.7049 -3.2642  2.0707
  709WAT     H2 2647   6.830   2.843   5.609 -0.0753  0.6174  0.6092
  710WAT      O 2648   4.007   5.051   2.209 -0.4700  0.2445  0.0595
  710WAT     H1 2649   3.952   5.076   2.284 -1.2339 -1.4315  0.1142
  710WAT     H2 2650   4.081   5.111   2.213 -1.0886  0.9795  1.4490
  711WAT      O 2651   5.470   4.848   3.001 -0.2716  0.0993 -0.2126
  711WAT     H1 2652   5.476   4.783   2.930  0.7229 -0.3099  0.2259
  711WAT     H2 2653   5.481   4.798   3.081  2.4125  0.9844  0.0708
  712WAT      O 2654   6.660   2.366   1.827  0.1158 -0.0111 -0.2844
  712WAT     H1 2655   6.654   2.404   1.739  2.3429 -0.6594 -0.7829
  712WAT     H2 2656   6.589   2.302   1.830  0.6347 -0.7490 -2.0595
  713WAT      O 2657   6.850   5.239   1.740  0.3861  0.1558 -0.1677
  713WAT     H1 2658   6.917   5.178   1.768 -1.0527 -1.4459 -0.0623
  713WAT     H2 2659   6.769   5.187   1.737 -1.2092  2.3591  1.3269
  714WAT      O 2660   5.359   4.669   2.515  0.1064  0.2298 -0.3646
  714WAT     H1 2661   5.354   4.720   2.435  1.1727  3.2731  1.3458
  714WAT     H2 2662   5.451   4.644   2.522  0.2708  1.0145  0.4502
  715WAT      O 2663   6.048   3.778   3.122  0.4884 -0.3716  0.5334
  715WAT     H1 2664   5.973   3.773   3.064  0.5243 -1.0446  0.5459
  715WAT     H2 2665   6.124   3.780   3.064  0.4623  0.4848  0.5145
  716WAT      O 2666   1.004   4.291   3.220 -0.2889 -0.1809 -0.7602
  716WAT     H1 2667   1.090   4.333   3.211 -1.1707  1.4744 -2.1607
  716WAT     H2 2668   1.012   4.211   3.168  0.3771  0.0075 -0.9637
  717WAT      O 2669   6.200   3.244   4.239 -0.1597  0.1305  0.4429
  717WAT     H1 2670   6.242   3.318   4.285 -0.1226  0.2476  0.2203
  717WAT     H2 2671   6.125   3.283   4.195 -0.0478  0.0659  0.1924
  718WAT      O 2672   6.498   3.800   2.572  0.5290  0.4109 -0.1583
  718WAT     H1 2673   6.490   3.792   2.667  0.6957 -3.3207 -0.3081
  718WAT     H2 2674   6.583   3.841   2.559  0.5477  0.8974  1.2923
  719WAT      O 2675   1.211   3.711   3.334  0.3420 -0.0075  0.0415
  719WAT     H1 2676   1.304   3.695   3.320  0.3948  1.1726 -1.1870
  719WAT     H2 2677   1.205   3.742   3.424  0.9510 -1.2973  0.5469
  720WAT      O 2678   6.306   5.044   2.707 -0.3727  0.1605 -0.2148
  720WAT     H1 2679   6.308   4.961   2.659  3.1510  1.5288 -2.8403
  720WAT     H2 2680   6.269   5.106   2.644  0.4288  1.2326  0.3541
  721WAT      O 2681   6.955   4.190   1.510 -0.5258 -0.6329 -0.0780
  721WAT     H1 2682   6.972   4.120   1.574  1.2856 -1.3406 -1.2347
  721WAT     H2 2683   7.039   4.202   1.466 -1.5923  0.1295 -2.0234
  722WAT      O 2684   6.927   4.150   2.326  0.0853  0.1984  0.1656
  722WAT     H1 2685   6.843   4.114   2.298  0.6438 -2.0875  1.1934
  722WAT     H2 2686   6.989   4.077   2.315  1.5157  1.1748  1.3599
  723WAT      O 2687   4.565   4.153   2.797 -0.2356 -0.2869  0.3086
  723WAT     H1 2688   4.472   4.167   2.782 -0.3386 -1.6562 -0.4533
  723WAT     H2 2689   4.569   4.105   2.880 -0.1976 -0.1471  0.3883
  724WAT      O 2690   0.620   3.859   4.705  0.6835 -0.0960  0.1986
  724WAT     H1 2691   0.633   3.952   4.685  0.6131  0.5120  2.6847
  724WAT     H2 2692   0.615   3.856   4.800 -0.4305 -2.5239  0.1236
  725WAT      O 2693   2.530   0.260   4.694 -0.3892  0.5382  0.0144
  725WAT     H1 2694   2.619   0.274   4.663  0.2148 -0.4139  1.2292
  725WAT     H2 2695   2.525   0.310   4.776 -0.2629 -1.0929  1.0533
  726WAT      O 2696   5.893   2.041   2.702  0.1378 -1.0630  0.8599
  726WAT     H1 2697   5.903   2.132   2.677  1.1893 -1.1065  1.1004
  726WAT     H2 2698   5.981   2.012   2.726 -0.5230 -1.4878  2.9818
  727WAT      O 2699   5.868   3.677   3.665  0.2979 -0.0492 -0.0744
  727WAT     H1 2700   5.885   3.665   3.572  0.0312 -0.6981 -0.0459
  727WAT     H2 2701   5.937   3.736   3.695 -0.2485  1.0547 -0.9003
  728WAT      O 2702   6.704   4.395   0.645 -0.5381  0.4076 -0.5949
  728WAT     H1 2703   6.637   4.441   0.594  1.1017  1.0800 -2.2242
  728WAT     H2 2704   6.719   4.451   0.721 -1.9015  0.1665 -0.1153
  729WAT      O 2705   7.084   5.382   2.531  0.3714  0.5518 -0.1703
  729WAT     H1 2706   7.038   5.465   2.531 -0.0259  0.3348  0.3767
  729WAT     H2 2707   7.025   5.321   2.486  1.1626  0.8213 -1.6569
  730WAT      O 2708   6.805   1.497   3.848  0.2545 -0.0598  0.3797
  730WAT     H1 2709   6.828   1.587   3.871  0.0427 -0.1947  1.1285
  730WAT     H2 2710   6.710   1.496   3.847  0.2343  0.1372 -1.3115
  731WAT      O 2711   5.026   3.384   0.623  0.6104  0.0507 -0.2825
  731WAT     H1 2712   5.006   3.366   0.714 -2.3912  1.3077 -0.5749
  731WAT     H2 2713   5.008   3.301   0.578 -0.4300  0.1402 -0.0432
  732WAT      O 2714   6.695   3.998   4.192  0.1091 -0.1674  0.2629
  732WAT     H1 2715   6.602   4.018   4.195 -0.0195 -0.8036  0.9194
  732WAT     H2 2716   6.716   3.996   4.099 -0.7137 -0.7991  0.0766
  733WAT      O 2717   7.388   4.951   2.544  0.0688  0.0562  0.0458
  733WAT     H1 2718   7.361   4.937   2.635  0.3582  0.5849  0.2161
  733WAT     H2 2719   7.358   5.039   2.524  1.7399  0.7265  0.2827
  734WAT      O 2720   6.383   3.584   3.480  0.1304  0.3113  0.4183
  734WAT     H1 2721   6.373   3.496   3.517  0.7122 -0.1513 -0.5126
  734WAT     H2 2722   6.312   3.634   3.520 -1.0422 -0.9216 -0.0510
  735WAT      O 2723   6.899   3.716   3.090  0.4698  0.1759 -0.3692
  735WAT     H1 2724   6.981   3.676   3.061 -0.2063 -1.3039 -0.3323
  735WAT     H2 2725   6.831   3.658   3.056 -0.5497  1.0594  0.0964
  736WAT      O 2726   0.183   3.601   0.801 -0.1367 -0.5850  0.1951
  736WAT     H1 2727   0.119   3.633   0.738 -0.1426 -1.3287 -0.1873
  736WAT     H2 2728   0.158   3.510   0.816  0.7528 -0.8505  0.1335
  737WAT      O 2729   7.118   5.924   2.353  0.3862 -0.3919  0.1963
  737WAT     H1 2730   7.149   5.932   2.443 -1.2432 -2.1521  0.9731
  737WAT     H2 2731   7.061   5.847   2.354 -0.5096  0.1692 -2.1079
  738WAT      O 2732   5.094   3.833   1.309 -0.2267 -0.6801  0.0198
  738WAT     H1 2733   5.101   3.793   1.223 -1.2485 -0.7372 -0.0468
  738WAT     H2 2734   5.145   3.776   1.367 -0.0988 -1.0099 -0.4199
  739WAT      O 2735   0.423   2.804   3.140  0.1381  0.2687  0.1156
  739WAT     H1 2736   0.374   2.827   3.061  0.4317 -1.4039 -0.5928
  739WAT     H2 2737   0.493   2.747   3.109 -0.2399 -1.1132  1.6788
  740WAT      O 2738   6.413   2.588   2.419 -0.2345 -0.6002 -0.1515
  740WAT     H1 2739   6.361   2.640   2.357  0.5869 -0.5759 -0.8480
  740WAT     H2 2740   6.385   2.498   2.405  0.2480 -0.6460 -0.8854
  741WAT      O 2741   6.201   1.834   3.124 -0.5876  0.7149  0.4540
  741WAT     H1 2742   6.217   1.925   3.151  1.4292  0.5714 -0.1548
  741WAT     H2 2743   6.200   1.837   3.028  0.8492 -0.0787  0.3838
  742WAT      O 2744   5.810   4.671   0.229  0.3338 -0.4615  0.8630
  742WAT     H1 2745   5.852   4.702   0.149 -2.0421  2.1391  0.4904
  742WAT     H2 2746   5.734   4.622   0.198 -1.4209  1.7651  1.4007
  743WAT      O 2747   6.311   3.956   2.958  0.2837 -0.7214  0.2939
  743WAT     H1 2748   6.307   4.007   2.878 -1.2360 -1.6569 -0.2682
  743WAT     H2 2749   6.240   3.990   3.012  0.2909 -1.1561  0.5847
  744WAT      O 2750   5.702   3.445   0.695 -0.5431  0.1000  0.5204
  744WAT     H1 2751   5.688   3.498   0.773  2.1109 -0.3861  1.4323
  744WAT     H2 2752   5.652   3.365   0.710  1.3823 -0.7815  2.6471
  745WAT      O 2753   1.666   5.066   1.775  0.3413 -0.1915  0.5264
  745WAT     H1 2754   1.714   5.078   1.857  1.8999 -0.7004 -0.2642
  745WAT     H2 2755   1.734   5.053   1.709 -0.8762  0.0610 -0.8380
  746WAT      O 2756   0.281   3.874   1.112  0.0177 -0.5549 -0.0017
  746WAT     H1 2757   0.293   3.884   1.207  1.0557  0.1700 -0.1911
  746WAT     H2 2758   0.332   3.797   1.089 -0.9527 -1.2555  0.1511
  747WAT      O 2759   6.216   4.497   1.070  0.0947 -0.4096 -0.1620
  747WAT     H1 2760   6.295   4.531   1.111  1.4951 -2.4959 -0.9239
  747WAT     H2 2761   6.189   4.424   1.125 -2.0255  0.9244  0.6990
  748WAT      O 2762   4.920   3.573   2.120 -0.8884 -0.0246 -0.5226
  748WAT     H1 2763   4.846   3.515   2.140 -0.0160 -2.1939 -3.1455
  748WAT     H2 2764   4.987   3.549   2.184 -1.8347  0.8496  0.8514
  749WAT      O 2765   0.742   5.011   3.260  0.2190  0.0224  0.1267
  749WAT     H1 2766   0.814   4.979   3.315 -0.1172 -2.9628 -0.9552
  749WAT     H2 2767   0.768   4.988   3.171 -1.4246  0.2117 -0.4312
  750WAT      O 2768   5.063   4.990   2.075 -0.3334 -0.1594  0.0570
  750WAT     H1 2769   4.992   5.049   2.099  0.1172  1.4465 -2.2434
  750WAT     H2 2770   5.032   4.947   1.994  0.5177 -0.9241  0.1145
  751WAT      O 2771   7.061   1.356   1.990  0.4085  0.2837  0.0017
  751WAT     H1 2772   7.126   1.424   2.010 -0.4558  0.5004  2.4380
  751WAT     H2 2773   7.054   1.305   2.071 -2.0986  0.0019 -0.3086
  752WAT      O 2774   4.468   3.220   1.535  0.2486  0.1789 -0.0353
  752WAT     H1 2775   4.409   3.152   1.505  0.9077 -0.4942  0.1666
  752WAT     H2 2776   4.426   3.255   1.614  0.8994 -1.4430  1.0860
  753WAT      O 2777   6.889   2.557   3.986 -0.6583 -0.6614 -0.0919
  753WAT     H1 2778   6.864   2.494   3.919 -1.5591 -0.5449  0.1196
  753WAT     H2 2779   6.847   2.525   4.066 -3.1353  1.3758 -0.4158
  754WAT      O 2780   4.581   2.517   1.886 -0.1034 -0.5458  0.6218
  754WAT     H1 2781   4.614   2.480   1.804  2.4140  0.0705  1.2545
  754WAT     H2 2782   4.624   2.465   1.955  0.5218  1.0714  1.5070
  755WAT      O 2783   0.652   3.648   4.001  0.0749  0.1533  0.6593
  755WAT     H1 2784   0.725   3.698   3.964 -0.2827  0.4740  0.3661
  755WAT     H2 2785   0.687   3.609   4.081 -0.3514  3.1634  2.4959
  756WAT      O 2786   1.394   4.234   2.274 -0.2170 -0.2836  0.4604
  756WAT     H1 2787   1.392   4.265   2.183 -0.3146  1.8257  1.1279
  756WAT     H2 2788   1.487   4.230   2.296 -0.1991 -0.6293  0.3263
  757WAT      O 2789   1.259   2.898   1.202 -0.0798  0.1627 -0.6427
  757WAT     H1 2790   1.191   2.905   1.269  0.7487  0.6063  0.1715
  757WAT     H2 2791   1.210   2.886   1.120 -1.1166 -0.0502 -0.0152
  758WAT      O 2792   5.936   5.623   3.848  0.5028  0.6599 -0.0534
  758WAT     H1 2793   5.952   5.535   3.884  0.7279  0.6062 -0.2841
  758WAT     H2 2794   5.842   5.637   3.862  0.6258  0.7302  0.7550
  759WAT      O 2795   4.828   3.979   3.029 -0.0465 -0.8860  0.5477
  759WAT     H1 2796   4.831   3.975   2.933 -0.0314  0.4751  0.4778
  759WAT     H2 2797   4.736   3.997   3.049  0.4242  1.9540  0.5995
  760WAT      O 2798   7.247   2.490   2.939 -0.7442 -0.2361 -0.0261
  760WAT     H1 2799   7.303   2.559   2.974 -0.8602 -0.3816  0.4542
  760WAT     H2 2800   7.223   2.520   2.852 -1.4736  0.7293  0.4877
  761WAT      O 2801   1.115   4.420   3.568  0.5452 -0.7177 -0.3631
  761WAT     H1 2802   1.067   4.496   3.600  1.9558 -1.2457  3.5085
  761WAT     H2 2803   1.169   4.454   3.496 -0.7383  1.3059 -0.4425
  762WAT      O 2804   6.381   3.291   3.911  0.0546  0.0942 -0.1422
  762WAT     H1 2805   6.357   3.232   3.839  2.0705 -1.3520  0.2803
  762WAT     H2 2806   6.373   3.237   3.989 -1.4384  1.4513  0.6981
  763WAT      O 2807   0.564   4.511   3.488 -0.2955  0.8453  0.3028
  763WAT     H1 2808   0.632   4.444   3.479  0.7082  1.5158  2.2931
  763WAT     H2 2809   0.593   4.565   3.562 -2.1580  2.1837  0.1321
  764WAT      O 2810   0.049   3.284   3.458 -0.0031  0.2704  0.2099
  764WAT     H1 2811   0.095   3.225   3.399  0.2219 -0.3297  0.9882
  764WAT     H2 2812  -0.027   3.313   3.406  1.5893  1.8767 -1.3663
  765WAT      O 2813   5.765   0.508   2.663  0.7251 -0.2734 -0.4658
  765WAT     H1 2814   5.739   0.491   2.573  0.7796 -0.4695 -0.4444
  765WAT     H2 2815   5.843   0.455   2.676  1.5781  0.8670 -0.7614
  766WAT      O 2816   6.085   4.805   2.043  0.3243 -0.0995 -0.4990
  766WAT     H1 2817   6.020   4.873   2.028  0.0607 -0.4146 -0.8150
  766WAT     H2 2818   6.037   4.723   2.030  0.6209 -0.3476 -0.0604
  767WAT      O 2819   6.417   4.573   1.750  0.0641  0.2587  0.2811
  767WAT     H1 2820   6.363   4.641   1.791  1.1651  0.1497  2.0051
  767WAT     H2 2821   6.428   4.507   1.818 -1.3863 -1.9783 -1.5135
  768WAT      O 2822   0.283   3.931   2.238 -0.0970  0.2309 -0.3834
  768WAT     H1 2823   0.221   3.999   2.265 -0.2892 -0.1922  0.2530
  768WAT     H2 2824   0.369   3.971   2.250 -0.1972  0.2185  0.3907
  769WAT      O 2825   0.671   0.751   2.068  0.5409  0.5748 -0.0125
  769WAT     H1 2826   0.691   0.664   2.104 -1.5491  0.4417  0.9730
  769WAT     H2 2827   0.635   0.800   2.142  2.0197  2.4461 -0.4566
  770WAT      O 2828   1.505   4.577   2.129  0.2574 -0.4873  0.1333
  770WAT     H1 2829   1.576   4.585   2.066  0.6504 -2.2527  0.3075
  770WAT     H2 2830   1.533   4.628   2.205  1.5809 -1.5109  0.3735
  771WAT      O 2831   5.533   3.959   0.804  0.2385 -0.0586 -0.3743
  771WAT     H1 2832   5.583   3.881   0.780  2.3289  0.4185  1.8926
  771WAT     H2 2833   5.572   4.030   0.752  0.6824 -0.0170 -0.0028
  772WAT      O 2834   5.945   4.566   2.034 -0.4975  0.2891 -0.1525
  772WAT     H1 2835   5.900   4.615   2.103 -3.0853  1.5461 -2.5114
  772WAT     H2 2836   5.934   4.474   2.057 -0.3677  0.6793  1.5783
  773WAT      O 2837   6.530   3.571   2.046  0.4401  0.0250  0.2533
  773WAT     H1 2838   6.621   3.601   2.049 -0.0638  2.6291 -3.5394
  773WAT     H2 2839   6.530   3.500   1.982  0.3717 -3.5208  3.8158
  774WAT      O 2840   0.494   3.438   2.411 -0.0488 -0.4297 -0.1106
  774WAT     H1 2841   0.539   3.521   2.393  2.1270 -0.7556  2.8754
  774WAT     H2 2842   0.563   3.372   2.404 -0.1834 -1.1405  3.2319
  775WAT      O 2843   6.378   1.563   2.342 -0.0140 -0.0381 -0.3758
  775WAT     H1 2844   6.326   1.618   2.401  0.6937 -1.2954  1.5243
  775WAT     H2 2845   6.467   1.596   2.352  0.2718 -0.9244  0.0807
  776WAT      O 2846   3.950   4.185   2.626  0.5073 -0.8260 -0.3537
  776WAT     H1 2847   3.859   4.183   2.596  1.2403 -0.8272 -2.7205
  776WAT     H2 2848   3.990   4.106   2.590  1.5200 -0.7273  0.4893
  777WAT      O 2849   5.303   3.767   0.843  0.0074  0.1803  0.7701
  777WAT     H1 2850   5.382   3.820   0.828  0.0764 -0.5017 -1.5422
  777WAT     H2 2851   5.236   3.831   0.867  0.1212  1.4165 -1.8477
  778WAT      O 2852   6.006   3.041   2.193  0.6296  0.5281 -0.1763
  778WAT     H1 2853   6.092   3.000   2.187 -0.2634 -2.2822  3.0694
  778WAT     H2 2854   5.944   2.969   2.178 -1.1450  2.0426 -0.4721
  779WAT      O 2855   1.438   5.001   3.256 -0.3587  0.0104  0.0107
  779WAT     H1 2856   1.498   4.954   3.313 -0.2803  0.2976  0.1663
  779WAT     H2 2857   1.467   4.980   3.167 -0.6839 -0.7030  0.0694
  780WAT      O 2858   0.183   4.324   3.898 -0.2292  0.2799 -0.5261
  780WAT     H1 2859   0.161   4.371   3.978 -1.1196  1.7739 -1.5842
  780WAT     H2 2860   0.227   4.245   3.928  0.6328  1.3994  1.3840
  781WAT      O 2861   0.197   3.529   0.428 -0.3344  0.5920  0.0633
  781WAT     H1 2862   0.259   3.601   0.415  0.6502 -0.5343 -2.0534
  781WAT     H2 2863   0.251   3.455   0.453 -0.8192 -0.3025 -1.3991
  782WAT      O 2864   4.514   4.404   1.352  0.0536 -0.5387  0.3655
  782WAT     H1 2865   4.477   4.457   1.423  0.5321  2.1709 -1.2444
  782WAT     H2 2866   4.608   4.421   1.356  0.3483 -2.0349  0.3360
  783WAT      O 2867   5.249   3.066   4.746 -0.4771  0.2919 -0.9162
  783WAT     H1 2868   5.333   3.042   4.707  0.2668  1.8602 -0.3411
  783WAT     H2 2869   5.232   3.155   4.714 -0.3947  1.1967  1.3691
  784WAT      O 2870   7.296   3.617   3.285 -0.6652  0.4071 -0.0130
  784WAT     H1 2871   7.390   3.610   3.301 -0.7140  0.7712  0.4820
  784WAT     H2 2872   7.259   3.537   3.321 -0.5173  0.1527 -0.4300
  785WAT      O 2873   7.057   3.623   4.387  0.0497  0.1547 -0.2350
  785WAT     H1 2874   7.016   3.625   4.473  0.9686  1.3732  0.2070
  785WAT     H2 2875   6.992   3.663   4.329 -0.0610  0.5411  0.1432
  786WAT      O 2876   5.607   5.590   0.989 -0.3503 -0.4641  0.1130
  786WAT     H1 2877   5.512   5.599   0.978 -0.4896 -0.8084  0.9576
  786WAT     H2 2878   5.634   5.671   1.032  0.1972  0.8951 -2.5956
  787WAT      O 2879   5.370   4.534   5.969 -0.1151  0.0754  0.6507
  787WAT     H1 2880   5.329   4.487   6.042 -1.1196 -1.2539 -0.7169
  787WAT     H2 2881   5.303   4.537   5.901  1.2466  0.0060 -0.7601
  788WAT      O 2882   5.314   4.869   5.368  0.3337 -0.0273 -0.3371
  788WAT     H1 2883   5.267   4.787   5.355 -1.7957  1.2106 -1.0041
  788WAT     H2 2884   5.245   4.934   5.383  1.8011  2.0057 -1.8636
  789WAT      O 2885   6.110   4.488   5.072 -0.1665 -0.0461  0.4831
  789WAT     H1 2886   6.090   4.420   5.008  0.1179 -0.2625  0.6236
  789WAT     H2 2887   6.066   4.459   5.152  0.2565 -0.2478  0.6423
  790WAT      O 2888   6.365   2.372   5.689 -0.4266  0.3855  0.2949
  790WAT     H1 2889   6.459   2.387   5.678 -0.3552 -0.1637  0.1575
  790WAT     H2 2890   6.326   2.402   5.606  0.1443 -4.0850 -1.8744
  791WAT      O 2891   6.332   1.634   5.066  0.1843  0.5622 -0.0074
  791WAT     H1 2892   6.332   1.545   5.030 -0.8217  0.5184  0.0818
  791WAT     H2 2893   6.420   1.645   5.101 -0.1943 -1.0408  1.5782
  792WAT      O 2894   6.063   2.169   5.934 -0.6278  0.0920  0.1953
  792WAT     H1 2895   6.119   2.105   5.978 -0.6415 -0.5431 -0.7111
  792WAT     H2 2896   6.008   2.204   6.004  1.5827  1.5121  1.3513
  793WAT      O 2897   5.260   3.595   3.424  0.0795 -0.1962 -0.1300
  793WAT     H1 2898   5.256   3.582   3.519 -1.2705 -0.1701 -0.1722
  793WAT     H2 2899   5.224   3.682   3.410 -1.1992 -0.7935 -0.7780
  794WAT      O 2900   7.004   3.512   1.213  0.3153 -0.1928  0.3443
  794WAT     H1 2901   6.922   3.492   1.257  0.2087  0.7876  0.6074
  794WAT     H2 2902   6.994   3.602   1.182  0.2017 -0.9771 -2.1085
  795WAT      O 2903   6.614   3.078   1.277  0.1513 -0.8301  0.1657
  795WAT     H1 2904   6.566   3.057   1.197 -0.1223 -2.0025  0.6219
  795WAT     H2 2905   6.704   3.092   1.249 -0.5683  2.6998 -0.9118
  796WAT      O 2906   7.212   3.548   5.374  0.4407  0.2154  0.6300
  796WAT     H1 2907   7.157   3.533   5.450 -0.2621  0.0737  0.0969
  796WAT     H2 2908   7.172   3.623   5.330  0.7747  0.2235  0.3362
  797WAT      O 2909   4.549   4.557   5.635 -0.1983 -0.5596 -0.3533
  797WAT     H1 2910   4.474   4.516   5.678  1.3627 -1.5622  1.6106
  797WAT     H2 2911   4.608   4.579   5.708 -0.7117  5.0289 -1.1705
  798WAT      O 2912   5.768   4.336   3.334  0.0058 -0.4994 -0.2124
  798WAT     H1 2913   5.841   4.394   3.358  0.2250  0.1471 -2.2248
  798WAT     H2 2914   5.811   4.258   3.299 -0.2629 -0.6858 -0.1201
  799WAT      O 2915   5.262   3.909   2.786 -0.0224 -0.5371  0.1731
  799WAT     H1 2916   5.276   3.997   2.820  0.1823 -0.6355  0.3406
  799WAT     H2 2917   5.292   3.914   2.695 -0.2638 -0.3627  0.1018
  800WAT      O 2918   6.791   3.198   2.757  0.6304  0.2287  0.4483
  800WAT     H1 2919   6.746   3.282   2.770 -0.7363 -0.4003 -0.0904
  800WAT     H2 2920   6.742   3.136   2.811  0.6873 -0.5401 -0.3715
  801WAT      O 2921   0.847   3.775   0.422  0.1383 -0.2886  0.1843
  801WAT     H1 2922   0.854   3.680   0.425  0.8247 -0.2308  1.2737
  801WAT     H2 2923   0.798   3.798   0.501  1.3033  0.3342  0.7674
  802WAT      O 2924   6.482   3.702   0.355  0.5160 -0.2111 -0.5427
  802WAT     H1 2925   6.465   3.774   0.416  1.4308 -1.2558  1.0162
  802WAT     H2 2926   6.398   3.688   0.310 -0.5749 -0.1823  1.3686
  803WAT      O 2927   7.197   3.971   1.015 -0.1805  0.4087 -0.2519
  803WAT     H1 2928   7.287   3.950   0.987 -0.9634 -1.8647 -1.3003
  803WAT     H2 2929   7.182   4.059   0.982  1.3427  0.4483 -0.9326
  804WAT      O 2930   4.476   4.453   2.587  0.7777 -0.6593 -0.3532
  804WAT     H1 2931   4.542   4.491   2.644  0.6765 -1.2818  0.1897
  804WAT     H2 2932   4.413   4.413   2.647 -0.1812  0.0538 -0.8471
  805WAT      O 2933   6.689   2.826   0.419  0.1098 -1.0889 -0.1483
  805WAT     H1 2934   6.700   2.754   0.481  0.9752 -0.7835  0.0608
  805WAT     H2 2935   6.718   2.791   0.335  1.6260 -0.6580  0.1684
  806WAT      O 2936   0.179   3.495   1.227  0.6621  0.1281 -0.5798
  806WAT     H1 2937   0.124   3.470   1.153  0.0442 -2.1574  0.5763
  806WAT     H2 2938   0.250   3.431   1.227  1.1450  0.6525  0.2736
  807WAT      O 2939   6.364   4.167   0.346 -0.0332 -0.3584  0.0552
  807WAT     H1 2940   6.324   4.254   0.337 -0.3578 -0.4554  0.5119
  807WAT     H2 2941   6.456   4.185   0.366  0.3909 -0.1380 -1.9356
  808WAT      O 2942   7.017   2.876   0.533  0.6638  0.2951 -0.3016
  808WAT     H1 2943   7.003   2.843   0.622 -0.6151  0.6420 -0.3566
  808WAT     H2 2944   7.083   2.945   0.543  1.3060 -0.3739  0.2138
  809WAT      O 2945   0.379   3.324   0.469 -0.2525  0.1323  0.0529
  809WAT     H1 2946   0.371   3.279   0.553 -0.3606  0.8580  0.4401
  809WAT     H2 2947   0.456   3.381   0.480  1.3062 -1.5881 -1.2082
  810WAT      O 2948   5.140   3.029   2.130  0.4241 -0.0632 -0.0683
  810WAT     H1 2949   5.156   2.952   2.077  0.5823 -0.6488  0.8179
  810WAT     H2 2950   5.045   3.045   2.121  0.6829  0.7853 -1.7551
  811WAT      O 2951   6.032   3.613   1.225 -0.2440  0.2636  0.2561
  811WAT     H1 2952   6.033   3.532   1.175  1.1451  0.6224 -0.3366
  811WAT     H2 2953   6.000   3.679   1.164 -1.1729  0.2083  0.6745
  812WAT      O 2954   6.932   4.455   2.020 -0.5933  0.0212  0.1971
  812WAT     H1 2955   6.963   4.433   2.108 -0.8009  1.5753  0.6902
  812WAT     H2 2956   7.011   4.481   1.973 -0.6988  0.8837  0.4771
  813WAT      O 2957   5.781   3.103   0.564  0.1251  0.4133 -0.2142
  813WAT     H1 2958   5.778   3.186   0.518  1.6577  1.0906  0.8179
  813WAT     H2 2959   5.869   3.069   0.547 -0.1740 -0.5640  0.1108
  814WAT      O 2960   6.062   3.475   1.619 -0.2759  0.0362  0.5427
  814WAT     H1 2961   6.035   3.566   1.629 -0.0112  0.0539  1.1418
  814WAT     H2 2962   6.079   3.465   1.525 -1.2264  0.3376  0.3300
  815WAT      O 2963   6.753   3.068   0.604 -0.2942  0.3798  0.0696
  815WAT     H1 2964   6.820   3.109   0.659 -0.7641  1.5784 -0.2153
  815WAT     H2 2965   6.800   3.005   0.551  0.0753 -1.3813  2.3543
  816WAT      O 2966   4.887   4.979   0.390 -0.0742  0.2713  0.1940
  816WAT     H1 2967   4.892   4.987   0.295 -1.9642 -1.5853 -0.1395
  816WAT     H2 2968   4.891   5.070   0.422 -1.2474  1.0805 -1.7775
  817WAT      O 2969   5.370   1.389   1.270 -0.1173  0.4404 -0.3108
  817WAT     H1 2970   5.276   1.375   1.261  0.0618 -0.6333 -0.6388
  817WAT     H2 2971   5.390   1.362   1.359  0.4103 -2.7158 -1.2775
  818WAT      O 2972   7.143   2.304   5.595 -0.3142  0.2382  0.4356
  818WAT     H1 2973   7.191   2.238   5.546  1.2290 -0.4794  2.7593
  818WAT     H2 2974   7.209   2.368   5.621 -1.4809  1.7726 -0.2371
  819WAT      O 2975   6.039   4.975   1.350  0.7268  0.2334  0.0063
  819WAT     H1 2976   6.088   5.001   1.428  2.0008  2.0124 -1.2990
  819WAT     H2 2977   6.025   5.057   1.303 -0.2686 -0.7576 -1.4961
  820WAT      O 2978   1.165   1.882   2.013  0.4845 -0.0112  0.4817
  820WAT     H1 2979   1.121   1.852   1.934 -2.1391  1.4167  1.3001
  820WAT     H2 2980   1.189   1.802   2.059 -0.2527 -0.8539 -0.5491
  821WAT      O 2981   3.532   4.805   5.836 -0.1247 -0.3607 -0.1076
  821WAT     H1 2982   3.453   4.762   5.805  2.2844 -3.1712 -2.9826
  821WAT     H2 2983   3.582   4.736   5.880  0.5649  1.4929  2.2520
  822WAT      O 2984   6.185   3.028   0.307 -0.2696  0.1504  0.5494
  822WAT     H1 2985   6.249   3.095   0.282  0.4513  0.0386  2.0147
  822WAT     H2 2986   6.220   2.947   0.270 -0.0900  0.2505  0.4961
  823WAT      O 2987   4.424   4.680   4.164 -0.3667 -0.7092  0.3682
  823WAT     H1 2988   4.380   4.646   4.242  0.0317 -1.8805  0.1102
  823WAT     H2 2989   4.517   4.671   4.185 -0.2097  1.3262  0.7365
  824WAT      O 2990   6.132   3.684   5.986  0.4685  0.3453  0.1091
  824WAT     H1 2991   6.073   3.622   6.028 -1.2449  0.4174 -2.0078
  824WAT     H2 2992   6.185   3.630   5.927  1.1854  0.5175  0.5925
  825WAT      O 2993   5.997   5.788   2.264  0.5465 -0.4210  0.0843
  825WAT     H1 2994   5.984   5.765   2.172  0.2201  2.4293 -0.6512
  825WAT     H2 2995   6.085   5.826   2.266 -0.4436  1.9989  0.3543
  826WAT      O 2996   6.244   3.984   1.274  0.0786  0.5623  0.1295
  826WAT     H1 2997   6.149   3.984   1.263  0.0533  0.0807  0.3126
  826WAT     H2 2998   6.279   3.959   1.189  0.1091  2.1934 -0.3636
  827WAT      O 2999   5.978   1.139   1.650 -0.2887 -0.5061 -0.0788
  827WAT     H1 3000   5.973   1.124   1.555 -0.7181  0.7873 -0.2802
  827WAT     H2 3001   5.950   1.056   1.689  0.1357 -1.1364 -1.0772
  828WAT      O 3002   7.112   3.172   1.579 -0.2292 -0.4148  0.0062
  828WAT     H1 3003   7.180   3.109   1.556 -1.0002 -0.5504 -2.0675
  828WAT     H2 3004   7.126   3.246   1.521 -2.5925 -0.9876 -1.4228
  829WAT      O 3005   5.523   4.738   0.089 -0.3561  0.1329  0.1201
  829WAT     H1 3006   5.547   4.801   0.022  0.2424  0.7718  0.9045
  829WAT     H2 3007   5.468   4.674   0.044  3.6916 -2.1403 -2.1390
  830WAT      O 3008   0.593   3.335   1.211 -0.2476  0.0406  0.6298
  830WAT     H1 3009   0.604   3.343   1.306 -1.4517 -0.2573  0.8168
  830WAT     H2 3010   0.544   3.254   1.199  1.2940 -0.7752 -0.3871
  831WAT      O 3011   5.632   3.757   0.635  0.6026 -0.1342 -0.0579
  831WAT     H1 3012   5.721   3.791   0.642  1.0727 -1.0891 -1.0360
  831WAT     H2 3013   5.630   3.683   0.696  0.7869 -0.6851 -0.7037
  832WAT      O 3014   5.175   2.436   1.815 -0.6610  0.3858 -0.0161
  832WAT     H1 3015   5.215   2.478   1.739 -1.8551  1.4300 -0.0932
  832WAT     H2 3016   5.217   2.478   1.890 -0.2811  0.1354 -0.0811
  833WAT      O 3017   4.786   5.119   5.758 -0.3810 -0.8294  0.6033
  833WAT     H1 3018   4.715   5.062   5.787  0.0765 -1.7604 -0.0503
  833WAT     H2 3019   4.744   5.185   5.704 -0.8354 -0.9581  0.7967
  834WAT      O 3020   5.500   4.322   0.737 -0.2639  0.5036  0.2804
  834WAT     H1 3021   5.551   4.385   0.685  0.1735  1.9989  2.3866
  834WAT     H2 3022   5.562   4.289   0.802 -0.9551 -0.8464  0.2894
  835WAT      O 3023   0.768   2.555   0.520 -0.1266 -0.2292  0.0870
  835WAT     H1 3024   0.728   2.586   0.439  0.0079 -0.7987 -0.2056
  835WAT     H2 3025   0.732   2.467   0.533  0.3113 -0.3816  0.3118
  836WAT      O 3026   5.850   4.045   0.875  0.0175 -0.4625  0.7874
  836WAT     H1 3027   5.786   4.042   0.803 -0.3034 -0.2804  1.0627
  836WAT     H2 3028   5.911   4.114   0.850 -0.9359  0.6415  1.3740
  837WAT      O 3029   4.354   4.532   0.849  0.4189  0.1718  0.1094
  837WAT     H1 3030   4.382   4.534   0.941 -1.4006  1.0434  0.6877
  837WAT     H2 3031   4.326   4.442   0.834  0.4900  0.0850  0.4923
  838WAT      O 3032   7.162   3.171   2.159 -0.7242 -0.2039 -0.0976
  838WAT     H1 3033   7.144   3.183   2.252  0.3622  0.4839  0.0440
  838WAT     H2 3034   7.119   3.245   2.116  0.7988  0.8650  0.1358
  839WAT      O 3035   6.993   3.539   5.617 -0.1746 -0.0119  0.4695
  839WAT     H1 3036   6.901   3.559   5.599 -0.1447  0.5269  0.9131
  839WAT     H2 3037   6.990   3.462   5.674 -0.3405 -0.1585  0.2652
  840WAT      O 3038   5.694   2.446   1.938 -0.4691 -0.1841 -0.1440
  840WAT     H1 3039   5.749   2.506   1.887  0.2207 -0.8721 -0.2219
  840WAT     H2 3040   5.727   2.452   2.027 -1.4610  0.7635  0.1919
  841WAT      O 3041   4.527   5.014   5.919  0.4689  0.0165  0.2188
  841WAT     H1 3042   4.564   4.936   5.878  0.5096  0.4937 -0.6587
  841WAT     H2 3043   4.476   5.056   5.850  0.2714  0.6547  0.7437
  842WAT      O 3044   5.172   4.298   5.034  0.1085 -0.1434  0.0737
  842WAT     H1 3045   5.250   4.314   4.980 -0.2333  1.5574  0.0386
  842WAT     H2 3046   5.100   4.300   4.971 -0.0361 -1.1171  0.1960
  843WAT      O 3047   6.251   5.182   1.796 -0.0771 -0.4521 -0.5814
  843WAT     H1 3048   6.209   5.264   1.770 -0.1997 -0.2344  0.2668
  843WAT     H2 3049   6.283   5.145   1.714  2.0934  1.5902 -0.7650
  844WAT      O 3050   4.916   5.235   1.474 -0.2034  0.2370  0.3387
  844WAT     H1 3051   4.960   5.154   1.449  3.7353  1.7141  1.6082
  844WAT     H2 3052   4.863   5.211   1.550 -1.6532 -1.6476 -1.1779
  845WAT      O 3053   5.382   3.900   5.535  0.1505 -0.5093  0.0237
  845WAT     H1 3054   5.408   3.948   5.457  1.2020 -0.3963  0.4239
  845WAT     H2 3055   5.442   3.930   5.603 -0.1383 -1.2948  0.6497
  846WAT      O 3056   5.581   2.840   2.925 -0.1529  0.6165 -0.6286
  846WAT     H1 3057   5.520   2.811   2.858  0.2762 -0.4233 -0.5930
  846WAT     H2 3058   5.536   2.912   2.969 -0.3670  1.4644 -2.1418
  847WAT      O 3059   5.995   3.355   1.090 -0.6741 -0.0761 -0.0228
  847WAT     H1 3060   5.953   3.274   1.062 -0.6704  0.0694 -0.4438
  847WAT     H2 3061   6.065   3.370   1.027 -0.9769  0.5059 -0.2283
  848WAT      O 3062   6.295   2.203   0.643 -0.2234 -0.1651  0.1404
  848WAT     H1 3063   6.245   2.237   0.569  0.5701  0.0290 -0.3161
  848WAT     H2 3064   6.228   2.177   0.707 -0.9534 -1.1465 -0.9785
  849WAT      O 3065   6.442   4.592   1.207  0.3913  0.0087  0.2070
  849WAT     H1 3066   6.492   4.647   1.147  1.0157 -0.7997 -0.0373
  849WAT     H2 3067   6.504   4.526   1.237 -0.5296 -1.0568 -0.1487
  850WAT      O 3068   5.564   4.063   1.373 -0.3680  0.8005 -0.3977
  850WAT     H1 3069   5.484   4.038   1.327 -0.6848  2.5514 -0.8524
  850WAT     H2 3070   5.533   4.113   1.449  0.2389 -0.0363  0.4164
  851WAT      O 3071   0.370   2.780   0.866 -0.3712  0.3618  0.2588
  851WAT     H1 3072   0.381   2.736   0.782  0.4736  0.3658  0.3640
  851WAT     H2 3073   0.290   2.832   0.855 -0.2224  0.4238 -0.5642
  852WAT      O 3074   4.719   2.083   0.208  0.5612 -0.3106  0.0124
  852WAT     H1 3075   4.638   2.063   0.255  0.6363 -0.5601  0.0380
  852WAT     H2 3076   4.775   2.006   0.224  1.0405  0.1331  0.5327
  853WAT      O 3077   5.801   4.342   5.163 -0.0251  0.3138  0.4121
  853WAT     H1 3078   5.884   4.300   5.141 -0.6107 -0.4960 -0.3098
  853WAT     H2 3079   5.800   4.344   5.259  0.1044 -1.1770  0.4630
  854WAT      O 3080   0.693   2.694   2.570  0.5230  0.1894  0.0090
  854WAT     H1 3081   0.631   2.621   2.563  1.7779 -1.1183  1.8550
  854WAT     H2 3082   0.742   2.691   2.488 -0.7223  0.2395 -0.7773
  855WAT      O 3083   3.255   2.176   0.146  0.1140  0.3490  0.4278
  855WAT     H1 3084   3.225   2.151   0.233 -0.0510  0.5366  0.4252
  855WAT     H2 3085   3.348   2.150   0.144 -0.6154 -2.5631 -0.4325
  856WAT      O 3086   3.292   1.465   0.342  0.1636 -0.2926  0.4789
  856WAT     H1 3087   3.307   1.372   0.325  0.2351 -0.0632 -0.7786
  856WAT     H2 3088   3.229   1.466   0.414 -0.5850 -1.3313 -0.1332
  857WAT      O 3089   4.007   6.128   2.143 -0.5799 -0.2798 -0.5816
  857WAT     H1 3090   4.002   6.035   2.167  1.3101 -0.9711 -2.6030
  857WAT     H2 3091   3.944   6.138   2.073 -1.5729  0.2710  0.3557
  858WAT      O 3092   4.351   1.640   1.671  0.0919 -0.2600 -0.1525
  858WAT     H1 3093   4.445   1.620   1.671 -0.0347 -0.8883 -0.0053
  858WAT     H2 3094   4.329   1.654   1.763  0.1880  0.6132 -0.2630
  859WAT      O 3095   4.391   3.232   0.106 -0.7637 -0.1878 -0.5908
  859WAT     H1 3096   4.486   3.221   0.108 -0.6632 -0.0296 -2.5111
  859WAT     H2 3097   4.358   3.167   0.168  0.6132  0.2136  0.6122
  860WAT      O 3098   0.651   5.557   4.171 -0.0464 -0.1284  0.2575
  860WAT     H1 3099   0.669   5.586   4.261  2.7659 -1.3849  0.1890
  860WAT     H2 3100   0.726   5.588   4.120 -1.8284  1.0213 -1.8408
  861WAT      O 3101   5.830   2.202   1.526  0.1345 -0.1113  0.1578
  861WAT     H1 3102   5.859   2.116   1.497  0.8833  0.2043 -0.0430
  861WAT     H2 3103   5.750   2.218   1.476 -0.2394 -0.8522  0.4901
  862WAT      O 3104   2.150   1.972   1.654 -0.8017  0.3802 -0.4619
  862WAT     H1 3105   2.154   2.010   1.742 -1.4927  0.0080 -0.2556
  862WAT     H2 3106   2.079   1.907   1.660  0.3419 -0.9490 -0.7802
  863WAT      O 3107   5.795   2.456   1.600 -0.0794  0.1560  0.6002
  863WAT     H1 3108   5.797   2.367   1.564 -0.5011  0.6179 -0.6222
  863WAT     H2 3109   5.716   2.495   1.563 -0.1955  0.8717  1.5605
  864WAT      O 3110   6.275   3.361   1.750  0.0898 -0.3131 -0.4148
  864WAT     H1 3111   6.232   3.433   1.704  0.8313 -0.6942 -1.7561
  864WAT     H2 3112   6.235   3.282   1.712 -1.4373 -0.6541  1.7333
  865WAT      O 3113   3.708   5.658   3.559 -0.4815 -0.0733  0.3205
  865WAT     H1 3114   3.724   5.576   3.514  0.7153  0.3958 -0.1486
  865WAT     H2 3115   3.724   5.638   3.652  0.0315 -0.3249  0.1819
  866WAT      O 3116   5.362   4.515   1.848  0.4803 -0.0558  0.4405
  866WAT     H1 3117   5.308   4.440   1.823 -1.2592  1.5758 -0.9819
  866WAT     H2 3118   5.300   4.586   1.862  2.2029  1.8840 -1.1130
  867WAT      O 3119   1.259   3.358   3.126  0.5338  0.0834 -0.0271
  867WAT     H1 3120   1.195   3.400   3.184  0.2219 -0.3488 -0.0551
  867WAT     H2 3121   1.271   3.421   3.054 -1.6945 -0.8104 -1.2926
  868WAT      O 3122   5.745   3.554   1.828  1.1925  0.2081  0.0799
  868WAT     H1 3123   5.813   3.549   1.761 -0.8836 -4.9968 -2.1496
  868WAT     H2 3124   5.672   3.599   1.784  0.9522 -0.1807  0.0824
  869WAT      O 3125   0.615   2.802   5.171 -0.0392  0.4839 -0.4380
  869WAT     H1 3126   0.579   2.715   5.157  0.9205  0.1502 -0.9375
  869WAT     H2 3127   0.573   2.856   5.104 -0.8657  0.4775  0.0711
  870WAT      O 3128   7.345   3.449   2.538 -0.0251 -0.7812  0.3155
  870WAT     H1 3129   7.335   3.544   2.537 -1.5364 -0.9121 -0.4923
  870WAT     H2 3130   7.427   3.433   2.493 -0.6616  0.0851 -1.2303
  871WAT      O 3131   0.661   3.544   1.976  0.1719  0.0494 -0.4836
  871WAT     H1 3132   0.652   3.585   2.062  1.7129 -0.6624  0.0486
  871WAT     H2 3133   0.627   3.455   1.989  0.4730 -0.0814 -0.5831
  872WAT      O 3134   6.835   4.273   2.868 -0.5587 -0.0987 -0.5398
  872WAT     H1 3135   6.896   4.263   2.941 -0.1759  1.1088 -0.6717
  872WAT     H2 3136   6.820   4.367   2.862 -2.6764 -0.3742 -0.3336
  873WAT      O 3137   5.324   5.147   1.584  0.2246 -0.1307  0.3765
  873WAT     H1 3138   5.317   5.238   1.613 -0.4931 -0.3906  1.0507
  873WAT     H2 3139   5.329   5.152   1.489 -3.7520  0.4561  0.0657
  874WAT      O 3140   3.069   4.147   4.737  0.3181 -0.3516 -0.4818
  874WAT     H1 3141   3.026   4.199   4.805  0.2997  0.0983 -0.8306
  874WAT     H2 3142   3.064   4.202   4.658 -0.4413 -1.2344 -1.0651
  875WAT      O 3143   5.491   4.588   0.310  0.0422  0.3228 -0.0884
  875WAT     H1 3144   5.484   4.661   0.249  0.3323 -0.0769 -0.6062
  875WAT     H2 3145   5.402   4.573   0.340 -0.0090  0.9488  0.1063
  876WAT      O 3146   1.242   3.964   0.434 -0.6790  0.0708 -0.1670
  876WAT     H1 3147   1.259   4.043   0.382 -0.2491 -0.4976 -0.9005
  876WAT     H2 3148   1.296   3.976   0.512 -0.0838  0.1925 -0.5903
  877WAT      O 3149   6.956   4.652   2.313  0.2121  0.3115 -0.2672
  877WAT     H1 3150   6.917   4.636   2.399 -3.3211 -1.6707 -2.0456
  877WAT     H2 3151   7.030   4.591   2.308  0.1744  0.1267  1.1553
  878WAT      O 3152   6.885   4.106   0.508  0.0103  0.3553  0.0846
  878WAT     H1 3153   6.900   4.034   0.446 -0.4435 -0.5475  1.0012
  878WAT     H2 3154   6.969   4.117   0.553  0.3616  1.0583 -0.7053
  879WAT      O 3155   0.591   3.325   3.142  0.3955  0.1418  0.1471
  879WAT     H1 3156   0.512   3.378   3.143  0.4541  0.2732 -0.7495
  879WAT     H2 3157   0.648   3.370   3.079  0.3175 -1.1475 -0.8785
  880WAT      O 3158   0.192   3.927   2.590  0.0163  0.1686  0.5165
  880WAT     H1 3159   0.269   3.946   2.537 -0.3419 -0.7319 -0.3675
  880WAT     H2 3160   0.225   3.875   2.663  0.3755  0.5959  0.6641
  881WAT      O 3161   1.080   2.337   5.215 -0.0920 -0.2371  0.1187
  881WAT     H1 3162   1.045   2.261   5.261 -0.3412 -0.0130  0.2990
  881WAT     H2 3163   1.093   2.307   5.125 -2.0762  0.0776 -0.3191
  882WAT      O 3164   5.899   3.816   0.620 -0.5531  0.6485  0.1343
  882WAT     H1 3165   5.981   3.852   0.654  0.8788 -1.4825 -0.8403
  882WAT     H2 3166   5.920   3.789   0.530 -1.0959 -3.3741  1.0191
  883WAT      O 3167   6.654   3.202   5.416  0.0011  0.4814 -0.0051
  883WAT     H1 3168   6.566   3.230   5.442  0.2274  0.8487  0.3719
  883WAT     H2 3169   6.711   3.236   5.484  0.3227 -0.6689  0.3313
  884WAT      O 3170   6.602   2.345   0.139 -0.2293 -0.0201  0.3259
  884WAT     H1 3171   6.566   2.286   0.073 -0.4904  0.3215  0.1591
  884WAT     H2 3172   6.651   2.410   0.089  1.8720 -1.2942  0.6214
  885WAT      O 3173   3.350   3.144   5.774  0.3532 -0.0422  0.0463
  885WAT     H1 3174   3.293   3.071   5.801 -2.0323  1.8058  0.3622
  885WAT     H2 3175   3.406   3.159   5.850  0.6861 -1.3472  0.0808
  886WAT      O 3176   5.019   2.249   2.700  0.1535 -0.0257  0.1145
  886WAT     H1 3177   5.026   2.179   2.635 -2.6383  1.2470 -1.7292
  886WAT     H2 3178   4.952   2.219   2.761  1.6698 -0.5265  1.6291
  887WAT      O 3179   0.550   2.928   3.513  0.1457 -0.1119 -0.6773
  887WAT     H1 3180   0.503   2.954   3.434  0.2241  1.9356 -0.1067
  887WAT     H2 3181   0.482   2.898   3.573 -0.3082  1.3690 -0.4127
  888WAT      O 3182   6.088   2.279   5.687  0.7635 -0.3435 -0.0989
  888WAT     H1 3183   6.100   2.229   5.768  1.0156 -0.2401 -0.0701
  888WAT     H2 3184   6.177   2.301   5.659  0.7399 -1.4566 -1.0966
  889WAT      O 3185   3.981   5.236   3.077  0.1041 -0.1653  0.6027
  889WAT     H1 3186   4.036   5.234   2.999 -0.9693  0.6684 -0.1820
  889WAT     H2 3187   4.036   5.196   3.145  1.8678  1.0599 -0.0319
  890WAT      O 3188   6.021   2.809   4.798  0.3005  1.3273  0.0382
  890WAT     H1 3189   6.032   2.867   4.723  1.2695  0.6749 -0.3459
  890WAT     H2 3190   6.095   2.748   4.793 -1.8375 -1.4382 -0.9109
  891WAT      O 3191   4.995   2.282   0.995  0.6407 -0.6093  0.2140
  891WAT     H1 3192   4.908   2.317   0.974  0.1736 -0.5214  2.1097
  891WAT     H2 3193   5.052   2.358   0.995  0.5363 -0.5275 -0.1063
  892WAT      O 3194   4.681   2.460   4.888 -0.1740 -0.3569  0.0946
  892WAT     H1 3195   4.699   2.527   4.954 -0.1509 -0.3481  0.0792
  892WAT     H2 3196   4.689   2.507   4.805 -1.3140 -0.0939  0.1139
  893WAT      O 3197   0.637   2.581   5.854 -0.3055 -0.0751 -0.2248
  893WAT     H1 3198   0.552   2.545   5.828 -0.9519  0.9236  0.4338
  893WAT     H2 3199   0.691   2.504   5.870 -1.5417 -0.7743  0.7669
  894WAT      O 3200   5.414   2.989   0.737 -1.0750 -0.3554  0.5655
  894WAT     H1 3201   5.415   2.999   0.642  0.5013 -1.3695  0.4366
  894WAT     H2 3202   5.411   2.895   0.751  1.6132 -0.3772  1.4471
  895WAT      O 3203   0.307   3.574   5.273  0.2204 -0.5576 -0.4050
  895WAT     H1 3204   0.354   3.576   5.356 -0.3950  0.2195 -0.0596
  895WAT     H2 3205   0.230   3.520   5.290  0.6750 -1.3513 -0.8057
  896WAT      O 3206   7.034   0.827   3.598 -0.2938 -0.4414  0.3924
  896WAT     H1 3207   7.026   0.845   3.504  0.5998  1.7875  0.6637
  896WAT     H2 3208   7.112   0.773   3.606  0.3864  0.4406 -0.0825
  897WAT      O 3209   5.664   3.466   0.437  0.4385  0.1011 -0.3539
  897WAT     H1 3210   5.658   3.490   0.530 -2.2102  0.8074 -0.6321
  897WAT     H2 3211   5.580   3.425   0.418  1.4388 -1.2112 -2.1639
  898WAT      O 3212   4.257   0.859   0.096  0.0715  0.6453  0.2942
  898WAT     H1 3213   4.189   0.835   0.159 -0.0323  0.5227  0.1376
  898WAT     H2 3214   4.211   0.909   0.029 -0.0945 -0.4033 -0.4083
  899WAT      O 3215   6.460   4.508   0.583  0.1522 -0.4784 -0.0942
  899WAT     H1 3216   6.394   4.454   0.541 -1.8897  1.4782  0.3616
  899WAT     H2 3217   6.444   4.596   0.549  0.4987  0.5942  2.2959
  900WAT      O 3218   4.914   1.879   0.221 -0.3123  0.0842  0.2424
  900WAT     H1 3219   4.877   1.813   0.280 -1.1754  0.8057  0.5310
  900WAT     H2 3220   4.998   1.842   0.193 -0.5312 -0.8864  0.8265
  901WAT      O 3221   1.319   3.371   5.790 -0.1171  0.0916  0.2137
  901WAT     H1 3222   1.229   3.383   5.820 -0.0245 -1.8036  1.4072
  901WAT     H2 3223   1.323   3.279   5.763  0.4880  1.0317 -3.4862
  902WAT      O 3224   5.861   1.876   2.450 -0.1032 -0.2490  0.5688
  902WAT     H1 3225   5.772   1.889   2.418  0.5370  0.8733 -0.8630
  902WAT     H2 3226   5.857   1.903   2.542 -1.0696  0.5925  0.3049
  903WAT      O 3227   5.646   3.614   5.612 -0.0955 -0.3846  0.3694
  903WAT     H1 3228   5.594   3.693   5.625  0.7060 -0.0773  2.0546
  903WAT     H2 3229   5.684   3.596   5.698 -0.1094 -2.5189 -0.0034
  904WAT      O 3230   5.817   0.939   3.828 -1.0464  0.3835 -0.5240
  904WAT     H1 3231   5.850   0.875   3.765 -1.0037  0.1693 -0.2889
  904WAT     H2 3232   5.728   0.909   3.848 -0.9889  0.3342 -0.3344
  905WAT      O 3233   4.619   4.559   5.359 -0.5903  0.2679 -0.3398
  905WAT     H1 3234   4.585   4.569   5.448 -1.3510  1.3621 -0.7340
  905WAT     H2 3235   4.549   4.594   5.303 -0.7825 -1.7606 -1.4818
  906WAT      O 3236   6.655   1.546   4.325 -0.2171 -0.1516  0.1377
  906WAT     H1 3237   6.592   1.572   4.392 -1.4907  2.8789 -2.0371
  906WAT     H2 3238   6.602   1.507   4.256  0.7977 -1.0977 -0.1395
  907WAT      O 3239   7.084   2.522   0.659 -0.0604 -0.2763  0.1962
  907WAT     H1 3240   7.159   2.477   0.621  1.6122  1.3979  1.3878
  907WAT     H2 3241   7.062   2.471   0.737  1.3414  0.4751  1.1151
  908WAT      O 3242   5.472   4.117   5.755 -0.2554 -0.2334  0.4594
  908WAT     H1 3243   5.491   4.188   5.817  0.1821 -0.2968  0.4021
  908WAT     H2 3244   5.523   4.043   5.788  1.3832  0.2157 -0.9490
  909WAT      O 3245   3.934   1.093   4.373 -0.8567  0.3998  0.1525
  909WAT     H1 3246   3.972   1.181   4.372 -2.8939  1.3349 -0.4396
  909WAT     H2 3247   3.993   1.041   4.319  2.0287  0.5847  2.8531
  910WAT      O 3248   4.816   0.558   4.471 -0.1436 -0.0204  0.0539
  910WAT     H1 3249   4.734   0.589   4.508  0.3799  0.4194  0.8950
  910WAT     H2 3250   4.882   0.581   4.537  0.6144 -0.6103 -0.4763
  911WAT      O 3251   5.733   3.550   5.317 -0.4018  0.2048  0.2452
  911WAT     H1 3252   5.685   3.603   5.253  1.0174  2.6877  1.1296
  911WAT     H2 3253   5.709   3.588   5.402  0.9231 -0.3579  0.8917
  912WAT      O 3254   5.419   3.592   3.761  0.1798  0.5054 -0.1795
  912WAT     H1 3255   5.328   3.582   3.732 -0.7857 -2.4079  3.0176
  912WAT     H2 3256   5.414   3.652   3.835  0.5123 -0.8865  1.0139
  913WAT      O 3257   5.625   2.345   5.466 -0.6359 -0.3342 -0.4190
  913WAT     H1 3258   5.585   2.424   5.501 -0.7599 -0.9686  0.9106
  913WAT     H2 3259   5.667   2.303   5.541 -0.8446 -1.6947 -1.0223
  914WAT      O 3260   5.207   1.814   4.303 -0.3745  0.2078  0.2853
  914WAT     H1 3261   5.247   1.869   4.236 -1.1688  1.9810  1.1893
  914WAT     H2 3262   5.234   1.725   4.281  2.2601  1.0814 -0.3487
  915WAT      O 3263   4.725   3.054   4.772  0.5313  0.3714 -0.0223
  915WAT     H1 3264   4.754   2.982   4.829 -1.1109 -1.5057 -1.3984
  915WAT     H2 3265   4.749   3.025   4.684 -0.3599  1.4053 -0.6208
  916WAT      O 3266   4.042   1.116   5.016  0.3504  0.2523  0.0452
  916WAT     H1 3267   3.960   1.071   5.040  0.4356 -0.0355 -0.1931
  916WAT     H2 3268   4.095   1.113   5.095  1.3469 -2.2641 -0.5944
  917WAT      O 3269   6.335   2.948   5.236  0.2203 -0.1153  0.1149
  917WAT     H1 3270   6.356   3.031   5.278 -0.2814  0.9673 -1.6747
  917WAT     H2 3271   6.407   2.932   5.175  0.8638 -1.5777  1.2004
  918WAT      O 3272   5.396   4.215   5.160 -0.0405 -0.0122  0.0379
  918WAT     H1 3273   5.462   4.241   5.096  0.8474  2.2186  1.7287
  918WAT     H2 3274   5.313   4.233   5.116  0.5355  0.6761 -0.8028
  919WAT      O 3275   3.986   2.797   4.531  0.0675  0.1396  0.0684
  919WAT     H1 3276   4.045   2.857   4.578 -0.5520  1.1359 -0.3905
  919WAT     H2 3277   4.044   2.738   4.484  0.7346  1.4179 -0.7827
  920WAT      O 3278   5.520   2.460   0.305  0.2625  0.7579 -0.2901
  920WAT     H1 3279   5.606   2.419   0.294 -0.6570 -1.1883 -0.7616
  920WAT     H2 3280   5.510   2.468   0.400  0.0262 -1.2939 -0.0831
  921WAT      O 3281   6.094   1.211   4.340  0.1826 -0.3792  0.3447
  921WAT     H1 3282   6.017   1.157   4.321 -0.5976  0.6717  0.4672
  921WAT     H2 3283   6.062   1.301   4.336  1.0946  0.0353  1.7478
  922WAT      O 3284   3.169   0.500   5.236 -0.6570 -0.3406 -0.2724
  922WAT     H1 3285   3.222   0.562   5.185 -2.0135  1.2985  0.2330
  922WAT     H2 3286   3.087   0.545   5.251 -1.8005 -2.3750 -0.0286
  923WAT      O 3287   6.929   2.194   5.444  0.6044 -0.0855  0.0396
  923WAT     H1 3288   6.993   2.236   5.502 -1.2658  2.2173  0.6029
  923WAT     H2 3289   6.964   2.207   5.356  1.5281 -0.0395  0.4020
  924WAT      O 3290   6.389   1.308   2.642 -0.5835  0.3593 -0.2525
  924WAT     H1 3291   6.309   1.256   2.647  0.1178 -0.6828  0.7999
  924WAT     H2 3292   6.374   1.379   2.705  0.1273 -1.0845  1.6565
  925WAT      O 3293   7.223   2.331   3.599 -0.1833 -0.1028 -0.1452
  925WAT     H1 3294   7.314   2.316   3.623  0.1605 -0.8074 -1.8102
  925WAT     H2 3295   7.226   2.403   3.536 -0.9937  1.1604  1.1856
  926WAT      O 3296   5.512   2.922   4.897  0.4609 -0.5447 -0.6757
  926WAT     H1 3297   5.484   3.013   4.907  0.7098 -0.2233 -2.5820
  926WAT     H2 3298   5.431   2.872   4.905  0.2202 -0.1127 -0.3029
  927WAT      O 3299   1.435   2.779   0.351 -0.3339  0.0595  0.1270
  927WAT     H1 3300   1.450   2.874   0.357  2.2931 -0.3766  1.9808
  927WAT     H2 3301   1.459   2.757   0.261  0.4959  0.9732  0.1093
  928WAT      O 3302   4.456   3.294   5.393 -0.5006 -0.1405  0.3671
  928WAT     H1 3303   4.389   3.268   5.329 -0.6551 -1.6768  1.1138
  928WAT     H2 3304   4.527   3.330   5.340 -0.6724 -1.2743 -0.6734
  929WAT      O 3305   5.311   3.445   0.581  0.3904 -0.0757 -0.1489
  929WAT     H1 3306   5.221   3.420   0.598  1.5614 -3.0576  2.5609
  929WAT     H2 3307   5.335   3.396   0.502  0.1533 -0.7483  0.1911
  930WAT      O 3308   5.466   3.159   1.265 -0.5606  0.3436  0.2179
  930WAT     H1 3309   5.424   3.245   1.273 -0.6833  0.2724  0.3443
  930WAT     H2 3310   5.433   3.109   1.340  1.0937  0.8609  1.3456
  931WAT      O 3311   5.315   1.742   2.810  0.9629 -0.2582  0.3168
  931WAT     H1 3312   5.273   1.827   2.798 -2.3502 -1.9850 -2.0064
  931WAT     H2 3313   5.364   1.728   2.728 -0.2089 -1.3549 -0.2330
  932WAT      O 3314   4.570   3.045   0.521 -0.3686 -0.2054 -0.0042
  932WAT     H1 3315   4.536   2.977   0.579 -1.8582  1.7698  1.6189
  932WAT     H2 3316   4.605   3.111   0.581  3.4596 -0.6152 -1.5686
  933WAT      O 3317   4.422   0.332   2.768 -0.5942 -0.6899 -0.3007
  933WAT     H1 3318   4.406   0.356   2.677 -1.3084  0.1545  0.0301
  933WAT     H2 3319   4.516   0.344   2.780 -0.8100  1.4755 -0.3282
  934WAT      O 3320   4.667   2.052   5.804 -0.0272  0.0611 -0.0271
  934WAT     H1 3321   4.696   1.971   5.845 -2.0448 -0.8097 -0.1831
  934WAT     H2 3322   4.662   2.115   5.875  1.6050  0.0880  0.0899
  935WAT      O 3323   5.760   2.163   0.750  0.3041 -0.5647  0.5994
  935WAT     H1 3324   5.751   2.162   0.654 -1.2878  2.7615  0.5897
  935WAT     H2 3325   5.686   2.111   0.781  0.3444 -0.9502  0.0716
  936WAT      O 3326   6.166   3.555   4.436  0.1442  0.1106 -0.2653
  936WAT     H1 3327   6.099   3.624   4.436  0.5264  0.5252 -2.0518
  936WAT     H2 3328   6.129   3.486   4.492 -1.3793  0.7024 -0.4937
  937WAT      O 3329   6.645   2.448   5.682 -0.2441  0.0417  0.5543
  937WAT     H1 3330   6.731   2.475   5.715  0.1545  0.2961 -0.6520
  937WAT     H2 3331   6.617   2.519   5.625 -1.5059  0.1952  1.3326
  938WAT      O 3332   5.653   2.401   4.619 -0.3065  0.9110  0.3209
  938WAT     H1 3333   5.607   2.485   4.617  0.6190  1.4265 -0.4855
  938WAT     H2 3334   5.665   2.379   4.526  1.8778  1.2755  0.4647
  939WAT      O 3335   5.435   3.143   0.173  0.0975 -0.5276  0.1800
  939WAT     H1 3336   5.341   3.125   0.174 -0.0276  0.1081  0.9044
  939WAT     H2 3337   5.464   3.111   0.088 -0.7007 -1.0937  0.1058
  940WAT      O 3338   6.638   3.101   0.351 -0.0360 -0.0545 -0.4047
  940WAT     H1 3339   6.661   3.015   0.388  0.9089  0.1947 -0.3875
  940WAT     H2 3340   6.667   3.164   0.417 -2.9284  0.2450  0.7316
  941WAT      O 3341   7.247   2.897   5.266 -0.9097  0.4109 -0.4359
  941WAT     H1 3342   7.277   2.807   5.254  0.5540  1.0217 -1.6865
  941WAT     H2 3343   7.225   2.927   5.178  1.1635  2.0808 -0.4651
  942WAT      O 3344   6.981   1.248   4.494  0.2492  0.0501 -0.1481
  942WAT     H1 3345   7.041   1.284   4.559 -0.4906  0.5793  0.2556
  942WAT     H2 3346   6.899   1.235   4.541  0.1224 -0.9394 -0.6252
  943WAT      O 3347   5.542   1.614   4.965  0.2912  0.3373 -0.3878
  943WAT     H1 3348   5.516   1.538   5.018 -0.7728  0.6568 -0.4322
  943WAT     H2 3349   5.568   1.679   5.030  0.5415  0.1706 -0.3207
  944WAT      O 3350   5.538   1.852   5.416  0.6637 -0.6279 -0.3573
  944WAT     H1 3351   5.584   1.789   5.361  0.8755 -1.0321  0.2631
  944WAT     H2 3352   5.475   1.799   5.465  1.5694 -0.5548  0.9638
  945WAT      O 3353   6.262   3.564   0.695 -0.4228 -0.4866 -0.5205
  945WAT     H1 3354   6.172   3.551   0.666 -0.8277  2.3698 -0.7698
  945WAT     H2 3355   6.315   3.549   0.616 -0.9554  0.6836 -1.1225
  946WAT      O 3356   5.937   1.562   4.766  0.1714  0.1209  0.0589
  946WAT     H1 3357   5.904   1.575   4.677 -0.9430 -0.4482  0.3701
  946WAT     H2 3358   5.900   1.635   4.816 -0.9023 -0.6717  0.4686
  947WAT      O 3359   4.706   1.283   4.536 -0.5353 -0.3422 -0.1696
  947WAT     H1 3360   4.737   1.362   4.580 -0.4957 -1.3455  1.6697
  947WAT     H2 3361   4.630   1.312   4.485  0.8357  1.3073 -1.3949
  948WAT      O 3362   4.800   0.538   3.665  0.0006  0.1471  0.3129
  948WAT     H1 3363   4.765   0.519   3.578  1.7214 -0.5167 -0.2827
  948WAT     H2 3364   4.841   0.624   3.657 -1.0956  0.7315  0.8822
  949WAT      O 3365   5.602   1.610   3.830  0.5439  0.0032 -0.2367
  949WAT     H1 3366   5.624   1.582   3.741  0.6295 -0.8279  0.0358
  949WAT     H2 3367   5.687   1.632   3.870  1.0466 -3.4131  0.8859
  950WAT      O 3368   7.135   1.593   3.875  0.2468  0.6011 -0.9183
  950WAT     H1 3369   7.139   1.639   3.959  1.9920  1.0109 -1.1896
  950WAT     H2 3370   7.143   1.500   3.898 -0.7075  0.6012 -0.5490
  951WAT      O 3371   0.157   2.340   3.689  0.7632  0.3604 -0.3005
  951WAT     H1 3372   0.142   2.305   3.777 -2.8787  1.9358 -0.1141
  951WAT     H2 3373   0.140   2.266   3.630  0.5950 -0.0201  0.2229
  952WAT      O 3374   7.370   3.264   4.321  0.2573 -0.1695 -0.0549
  952WAT     H1 3375   7.354   3.175   4.288 -1.0342 -0.0752  0.2760
  952WAT     H2 3376   7.306   3.276   4.390  0.9776  0.7307  0.4754
  953WAT      O 3377   6.289   3.852   4.767 -0.2829 -0.0794 -0.3823
  953WAT     H1 3378   6.286   3.939   4.727  1.1563 -0.2890 -1.0216
  953WAT     H2 3379   6.211   3.808   4.734 -2.0800  1.5468  1.4655
  954WAT      O 3380   5.427   3.889   4.282 -0.0532 -0.0425 -0.2909
  954WAT     H1 3381   5.373   3.900   4.204 -0.2461  0.1104 -0.1363
  954WAT     H2 3382   5.392   3.810   4.324  0.5838 -0.5973 -0.7906
  955WAT      O 3383   3.984   0.385   1.434 -0.3224 -0.6583  0.4623
  955WAT     H1 3384   4.012   0.459   1.381 -0.3444  0.2033  1.6225
  955WAT     H2 3385   3.894   0.367   1.405 -0.5192  0.1351  0.5551
  956WAT      O 3386   5.027   1.918   3.102 -0.8387 -0.2688 -0.5969
  956WAT     H1 3387   4.979   1.842   3.069 -0.2783 -0.6708 -0.5003
  956WAT     H2 3388   5.117   1.904   3.072  0.4241 -2.0952  3.3745
  957WAT      O 3389   4.366   4.070   5.307  0.0087 -0.3710  0.1799
  957WAT     H1 3390   4.326   3.986   5.330 -3.2198  0.9743 -0.0537
  957WAT     H2 3391   4.380   4.114   5.391 -3.0240  0.7829  0.1780
  958WAT      O 3392   4.015   1.776   0.476  0.1055 -0.4776  0.6288
  958WAT     H1 3393   3.978   1.855   0.514 -0.3258 -0.6644  0.5994
  958WAT     H2 3394   3.939   1.722   0.454  0.2136  0.4070 -2.2768
  959WAT      O 3395   6.034   3.337   4.540  0.3011  0.4251 -0.4028
  959WAT     H1 3396   6.036   3.279   4.464 -1.6327 -0.5234  0.2005
  959WAT     H2 3397   6.083   3.290   4.608 -1.2993 -0.5948  0.0984
  960WAT      O 3398   1.079   2.718   2.981  0.1279  0.3774  0.9440
  960WAT     H1 3399   1.042   2.774   3.048  2.1978 -0.5496  2.9970
  960WAT     H2 3400   1.011   2.713   2.913 -1.3662  2.7013  2.1602
  961WAT      O 3401   6.713   3.621   5.617  0.2529 -0.7042 -0.5870
  961WAT     H1 3402   6.666   3.559   5.673  1.3233 -1.6123 -0.6758
  961WAT     H2 3403   6.649   3.691   5.602  0.2693  0.2370  2.7828
  962WAT      O 3404   5.834   1.155   4.270  0.2513 -0.5138  0.7545
  962WAT     H1 3405   5.783   1.112   4.338  0.4602 -2.2294 -0.1128
  962WAT     H2 3406   5.839   1.091   4.199  2.6016  0.0258  0.3353
  963WAT      O 3407   5.445   3.235   5.843  0.4426  0.1936  0.5986
  963WAT     H1 3408   5.484   3.282   5.770  1.5013  0.3881  1.2670
  963WAT     H2 3409   5.378   3.295   5.877 -0.1240  0.0566 -0.2618
  964WAT      O 3410   5.280   2.763   4.968 -0.4256 -0.0310 -0.1610
  964WAT     H1 3411   5.231   2.843   4.990 -0.5656 -0.0636 -0.3506
  964WAT     H2 3412   5.284   2.715   5.050 -1.1680 -0.2694 -0.2558
  965WAT      O 3413   5.105   2.841   4.756 -0.5160  0.0134  0.3668
  965WAT     H1 3414   5.146   2.924   4.733 -1.0766  0.6151  1.4372
  965WAT     H2 3415   5.171   2.794   4.806 -0.7645  0.5491  1.2174
  966WAT      O 3416   4.858   1.292   4.866 -0.4492 -0.9315 -0.8975
  966WAT     H1 3417   4.791   1.351   4.831 -2.3494 -0.8810  2.4027
  966WAT     H2 3418   4.937   1.346   4.872 -1.1016  0.1183 -1.4915
  967WAT      O 3419   5.390   2.003   0.072  0.0439 -0.1241  0.1934
  967WAT     H1 3420   5.347   2.082   0.106 -0.7897 -0.0836 -0.9115
  967WAT     H2 3421   5.446   2.035   0.002  1.3125 -0.2830  1.1025
  968WAT      O 3422   6.720   2.700   5.248  0.5555 -0.3501  0.4190
  968WAT     H1 3423   6.806   2.660   5.236  0.7791 -0.0906  1.0893
  968WAT     H2 3424   6.737   2.793   5.258  0.0342 -0.0628 -1.1172
  969WAT      O 3425   2.556   1.846   4.955  0.1850 -0.0014 -0.1370
  969WAT     H1 3426   2.547   1.780   4.887  0.9623 -3.0919  2.5111
  969WAT     H2 3427   2.602   1.918   4.913 -2.7893  0.0547 -3.8246
  970WAT      O 3428   3.694   1.484   3.612 -0.3711  0.3671  0.2102
  970WAT     H1 3429   3.601   1.465   3.625 -0.6616  2.1561  1.0481
  970WAT     H2 3430   3.718   1.538   3.687  1.2403  0.2944 -0.2236
  971WAT      O 3431   0.533   2.118   0.384 -0.6012  0.2161  0.2704
  971WAT     H1 3432   0.561   2.127   0.293 -0.3498  2.0647  0.4790
  971WAT     H2 3433   0.538   2.024   0.402  0.0367 -0.1047 -1.3960
  972WAT      O 3434   5.562   2.788   4.173 -0.5800  0.2830 -1.0893
  972WAT     H1 3435   5.535   2.742   4.253  1.1734 -0.9673 -1.1529
  972WAT     H2 3436   5.532   2.878   4.185  0.3263  0.3265  1.3452
  973WAT      O 3437   5.160   1.536   2.959  0.1548 -0.0668  0.3362
  973WAT     H1 3438   5.227   1.597   2.928 -0.6422  0.4711 -0.3971
  973WAT     H2 3439   5.208   1.470   3.008  1.3091 -0.0938 -0.7692
  974WAT      O 3440   5.372   3.287   3.721 -0.6731  0.0568 -0.0351
  974WAT     H1 3441   5.340   3.331   3.799 -0.0414  0.5545 -0.0444
  974WAT     H2 3442   5.331   3.201   3.723  0.9773 -0.7465  1.9730
  975WAT      O 3443   6.456   4.132   5.013  0.7105  0.1049  0.4818
  975WAT     H1 3444   6.541   4.117   4.972 -0.4122  0.3256 -2.0783
  975WAT     H2 3445   6.453   4.226   5.031  0.2911  0.4526 -1.2474
  976WAT      O 3446   5.759   1.685   3.487 -0.4471  0.2918  0.0273
  976WAT     H1 3447   5.739   1.771   3.524 -1.1834  0.5625 -0.9380
  976WAT     H2 3448   5.682   1.631   3.508  0.5641 -0.5577  1.7836
  977WAT      O 3449   5.733   2.165   3.698  0.1707 -0.3457 -0.2447
  977WAT     H1 3450   5.640   2.164   3.723 -0.5616 -1.8712 -2.7048
  977WAT     H2 3451   5.744   2.247   3.650 -0.4309 -1.0044 -1.5572
  978WAT      O 3452   4.423   0.356   3.425  0.3421 -0.2245  0.2081
  978WAT     H1 3453   4.462   0.433   3.384  0.6287 -0.3761  0.1957
  978WAT     H2 3454   4.335   0.385   3.450  0.4185  0.0819  0.1319
  979WAT      O 3455   4.326   4.049   4.263  0.1772 -0.3028  0.4629
  979WAT     H1 3456   4.332   4.118   4.197  2.9660 -0.7099  0.1691
  979WAT     H2 3457   4.271   4.087   4.332 -0.8735  1.0168 -1.0241
  980WAT      O 3458   6.075   2.777   4.137 -0.5496 -0.5462 -0.1853
  980WAT     H1 3459   6.116   2.837   4.076  0.1251 -1.5380 -0.7353
  980WAT     H2 3460   6.144   2.713   4.158 -0.4954  0.1805  2.2157
  981WAT      O 3461   5.810   2.685   4.019 -0.5607 -0.9726 -0.1284
  981WAT     H1 3462   5.734   2.716   4.068  0.8565 -0.8665  2.1736
  981WAT     H2 3463   5.859   2.765   3.998  0.6209 -1.1909  1.5231
  982WAT      O 3464   5.949   1.585   2.498 -0.3654  0.0458 -0.2154
  982WAT     H1 3465   5.890   1.510   2.502 -0.5466  0.1770 -0.4170
  982WAT     H2 3466   5.891   1.659   2.478 -0.2470  0.3002  0.3656
  983WAT      O 3467   6.162   2.168   4.179 -0.1964  0.5439 -0.2746
  983WAT     H1 3468   6.174   2.081   4.140  0.2424 -0.0765  1.1881
  983WAT     H2 3469   6.137   2.150   4.269  0.2064  1.9514  0.1301
  984WAT      O 3470   4.395   1.403   4.765  0.0008 -0.0550  0.4114
  984WAT     H1 3471   4.472   1.425   4.817 -0.3650 -0.9224  1.3580
  984WAT     H2 3472   4.392   1.307   4.766 -1.3884 -0.0285  0.8520
  985WAT      O 3473   5.974   4.810   3.919 -0.0255  0.4042 -0.6926
  985WAT     H1 3474   5.961   4.732   3.973 -0.2733  1.3111  0.5659
  985WAT     H2 3475   5.945   4.782   3.831 -1.3165 -0.5324 -0.0053
  986WAT      O 3476   6.401   2.737   3.278  0.3385  0.3352 -0.6536
  986WAT     H1 3477   6.449   2.710   3.356 -1.2285 -0.3848  0.1181
  986WAT     H2 3478   6.409   2.832   3.277  0.4003  0.3575  0.3859
  987WAT      O 3479   4.925   2.220   4.671  0.6977  0.3398 -0.0971
  987WAT     H1 3480   4.927   2.127   4.695  1.9596  0.3354 -0.1762
  987WAT     H2 3481   4.835   2.235   4.642  0.9656 -1.3536 -2.0388
  988WAT      O 3482   4.493   2.762   4.960  0.0027  0.0964 -0.2421
  988WAT     H1 3483   4.478   2.762   4.865 -3.2791 -1.7045  0.1178
  988WAT     H2 3484   4.486   2.853   4.986  0.9152  0.6129 -1.6741
  989WAT      O 3485   6.246   2.912   4.608  0.0777  0.0728 -0.2275
  989WAT     H1 3486   6.224   2.950   4.523 -0.3830  0.0720 -0.1121
  989WAT     H2 3487   6.321   2.856   4.591  0.6279  0.8572 -0.4476
  990WAT      O 3488   0.317   2.800   5.374 -0.0766  0.0332 -0.0275
  990WAT     H1 3489   0.318   2.753   5.291  0.4046  0.5611 -0.3285
  990WAT     H2 3490   0.407   2.830   5.386  0.7505 -2.9579  2.4177
  991WAT      O 3491   5.590   0.201   3.562 -0.1306 -0.6903 -0.2534
  991WAT     H1 3492   5.654   0.202   3.633  0.5497  0.0206 -0.8534
  991WAT     H2 3493   5.543   0.284   3.571 -0.2039 -0.7067 -0.4719
  992WAT      O 3494   4.833   2.937   5.527  0.4131  0.2209  0.4142
  992WAT     H1 3495   4.884   2.912   5.450 -0.4344 -0.2049 -0.0194
  992WAT     H2 3496   4.795   3.022   5.503 -3.2293 -1.6956 -1.3954
  993WAT      O 3497   4.997   2.469   3.746  0.2537  0.5769 -0.4164
  993WAT     H1 3498   4.917   2.516   3.722 -0.2678 -0.3958 -0.6588
  993WAT     H2 3499   5.058   2.490   3.676 -0.5808 -0.5584 -1.5427
  994WAT      O 3500   5.147   2.020   3.666  0.0854  0.6842 -0.0602
  994WAT     H1 3501   5.151   2.110   3.698 -2.1360  0.4243  1.1311
  994WAT     H2 3502   5.091   2.024   3.588 -2.8579 -0.0125  1.8515
  995WAT      O 3503   6.883   1.564   3.424 -0.0653 -0.2770  0.2273
  995WAT     H1 3504   6.955   1.544   3.365  0.5025 -1.0183  1.1461
  995WAT     H2 3505   6.897   1.507   3.500 -1.2327  0.0570  0.7243
  996WAT      O 3506   6.272   5.432   2.523  0.0062 -0.6790  0.4782
  996WAT     H1 3507   6.246   5.339   2.520 -2.0866 -0.1390 -1.6176
  996WAT     H2 3508   6.320   5.445   2.441 -0.1109  0.1701  0.5430
  997WAT      O 3509   6.326   0.865   2.438 -0.3055  0.0559 -0.2430
  997WAT     H1 3510   6.390   0.813   2.389 -1.9910 -0.0517 -2.4677
  997WAT     H2 3511   6.325   0.950   2.393 -0.7318  0.5409  0.6542
  998WAT      O 3512   1.201   2.262   3.958 -0.3739  0.3297 -0.0496
  998WAT     H1 3513   1.236   2.314   3.886  0.3634  0.8751  0.6980
  998WAT     H2 3514   1.204   2.320   4.034 -2.0534  0.0927  0.2392
  999WAT      O 3515   0.930   1.330   3.020 -0.1795 -0.4872  0.1626
  999WAT     H1 3516   0.994   1.260   3.027  1.8600  0.9327 -2.3557
  999WAT     H2 3517   0.884   1.312   2.938 -2.1018 -0.7177  1.2391
 1000WAT      O 3518   5.160   6.124   3.309 -0.2340  0.2240 -0.2560
 1000WAT     H1 3519   5.131   6.191   3.370  1.0900  0.6882 -0.1140
 1000WAT     H2 3520   5.248   6.101   3.338 -0.5133 -1.3191 -0.5263
 1001WAT      O 3521   5.771   1.644   4.538 -0.3350 -0.2773  0.3373
 1001WAT     H1 3522   5.749   1.697   4.462 -1.2297 -1.5267 -0.3061
 1001WAT     H2 3523   5.715   1.679   4.608 -2.9006 -1.9790 -0.7282
 1002WAT      O 3524   5.979   0.291   3.438  0.5656  0.3375 -0.5861
 1002WAT     H1 3525   6.031   0.372   3.436 -0.5876  1.2039  1.2536
 1002WAT     H2 3526   5.987   0.260   3.528  0.7814 -1.5059 -1.2007
 1003WAT      O 3527   7.220   2.169   2.853 -0.0336 -0.1421 -0.0910
 1003WAT     H1 3528   7.143   2.226   2.849 -0.3748 -0.3655  2.1670
 1003WAT     H2 3529   7.275   2.207   2.922  0.8149 -1.2472 -0.1261
 1004WAT      O 3530   5.124   2.741   4.047 -0.1666  0.0442  0.1547
 1004WAT     H1 3531   5.215   2.713   4.041  0.0259  0.1375  2.1275
 1004WAT     H2 3532   5.110   2.792   3.967  1.4487 -0.1236 -0.2753
 1005WAT      O 3533   6.582   1.888   3.645  0.1511  0.1098 -0.3165
 1005WAT     H1 3534   6.591   1.844   3.730  0.8680  2.6763  1.0334
 1005WAT     H2 3535   6.665   1.872   3.601  0.8371  0.9851  0.6222
 1006WAT      O 3536   6.537   3.327   2.511  0.4196 -0.4330  0.1847
 1006WAT     H1 3537   6.469   3.261   2.493  0.0818 -0.2125  0.6489
 1006WAT     H2 3538   6.495   3.410   2.488 -0.0729 -0.1197  2.0779
 1007WAT      O 3539   5.665   2.014   2.873 -0.2205 -0.0095 -0.1842
 1007WAT     H1 3540   5.665   1.921   2.895  0.8442  0.3386  1.5306
 1007WAT     H2 3541   5.740   2.025   2.816 -0.3294 -0.2019 -0.3646
 1008WAT      O 3542   6.333   0.777   3.858  0.5738  0.2161 -0.6459
 1008WAT     H1 3543   6.381   0.855   3.832  0.7926  0.1311 -0.4960
 1008WAT     H2 3544   6.379   0.745   3.936 -0.1707  0.5606 -0.0438
 1009WAT      O 3545   6.643   2.246   5.498 -0.3611  0.1601 -0.6282
 1009WAT     H1 3546   6.723   2.204   5.467 -0.0828  0.9033 -0.9421
 1009WAT     H2 3547   6.672   2.305   5.568 -0.5369  0.9001 -1.1681
 1010WAT      O 3548   5.589   2.116   3.157 -0.1188  0.9083 -0.6495
 1010WAT     H1 3549   5.637   2.037   3.182 -2.3367 -0.0888  0.7571
 1010WAT     H2 3550   5.568   2.103   3.065 -1.0272 -0.4982 -0.2707
 1011WAT      O 3551   6.890   3.431   5.083  0.7023 -0.2432 -0.1615
 1011WAT     H1 3552   6.964   3.389   5.128  1.4872 -1.2865 -2.2729
 1011WAT     H2 3553   6.916   3.523   5.077  0.4363 -0.0070  1.7001
 1012WAT      O 3554   5.926   1.645   4.213  0.5683  0.5540 -0.4322
 1012WAT     H1 3555   5.862   1.575   4.205  0.5381 -0.3727  4.6389
 1012WAT     H2 3556   6.011   1.601   4.201  0.4765 -0.0855  1.0292
 1013WAT      O 3557   6.441   3.566   5.374  0.1372  0.0521 -0.2218
 1013WAT     H1 3558   6.458   3.516   5.294 -1.7654 -0.1435 -0.5358
 1013WAT     H2 3559   6.428   3.656   5.344 -4.2378 -0.5429 -0.7509
 1014WAT      O 3560   5.695   1.240   3.470  0.2362 -0.0539  0.1673
 1014WAT     H1 3561   5.703   1.162   3.525  2.4807 -0.7130 -0.9707
 1014WAT     H2 3562   5.640   1.213   3.397  0.0732 -0.2215  0.3512
 1015WAT      O 3563   0.773   2.768   3.520 -0.1397  0.2200  0.0904
 1015WAT     H1 3564   0.829   2.816   3.581  0.0665  0.3184 -0.1678
 1015WAT     H2 3565   0.689   2.813   3.522 -0.2399  0.0129  0.5554
 1016WAT      O 3566   6.452   1.336   2.050 -0.1732 -0.4005 -0.4881
 1016WAT     H1 3567   6.386   1.363   1.986 -0.6951  0.6852  0.4757
 1016WAT     H2 3568   6.444   1.241   2.054 -2.0082 -0.2554 -0.0629
 1017WAT      O 3569   4.237   2.599   3.907  0.4307 -0.4241 -0.4407
 1017WAT     H1 3570   4.162   2.604   3.966  0.1811  0.4493 -0.8120
 1017WAT     H2 3571   4.202   2.562   3.827  0.3388  0.1766 -0.6857
 1018WAT      O 3572   6.762   2.101   3.150  0.1775 -0.2398  0.0155
 1018WAT     H1 3573   6.840   2.047   3.163  1.4561  1.3230 -0.7085
 1018WAT     H2 3574   6.753   2.107   3.055 -1.8011 -1.6682  0.0652
 1019WAT      O 3575   0.924   3.209   4.244 -0.0168  0.2027 -0.6396
 1019WAT     H1 3576   0.910   3.184   4.153  2.9684 -2.8156 -0.4467
 1019WAT     H2 3577   1.007   3.258   4.243 -1.6747  3.2764  0.1331
 1020WAT      O 3578   3.787   1.696   4.389 -0.0370 -0.4310 -0.1768
 1020WAT     H1 3579   3.711   1.729   4.438  0.0401 -0.7215  0.1422
 1020WAT     H2 3580   3.861   1.740   4.429  0.1061 -1.2719  0.5119
 1021WAT      O 3581   4.704   2.799   4.050 -0.0285 -0.0467 -0.5291
 1021WAT     H1 3582   4.748   2.799   3.965 -0.6773 -0.9719 -0.8781
 1021WAT     H2 3583   4.644   2.725   4.046  1.4735 -1.5063  1.5225
 1022WAT      O 3584   7.002   3.111   4.553 -0.1919 -0.5582  0.0445
 1022WAT     H1 3585   7.063   3.184   4.543 -1.7397  0.7220 -0.5805
 1022WAT     H2 3586   7.013   3.060   4.473  0.2934 -0.5243  0.0882
 1023WAT      O 3587   5.854   2.423   4.113  0.5174  0.3938 -0.5074
 1023WAT     H1 3588   5.870   2.517   4.106 -0.1461  0.3728 -3.6580
 1023WAT     H2 3589   5.768   2.410   4.072  0.8897 -1.6646 -0.7353
 1024WAT      O 3590   6.944   2.596   0.313 -0.1629 -0.1046  0.0810
 1024WAT     H1 3591   6.886   2.585   0.388  0.5822 -1.8994  0.4430
 1024WAT     H2 3592   7.014   2.532   0.327  2.1347  2.1667 -0.1374
 1025WAT      O 3593   6.432   2.332   3.188 -0.7337 -0.4931 -0.1111
 1025WAT     H1 3594   6.406   2.362   3.275  0.5229 -1.6656  0.7140
 1025WAT     H2 3595   6.528   2.334   3.190 -0.6699 -1.4675 -1.1316
 1026WAT      O 3596   4.104   4.162   5.197 -0.2506  0.2804  0.6488
 1026WAT     H1 3597   4.190   4.140   5.234 -0.3511  0.5136  1.0219
 1026WAT     H2 3598   4.098   4.108   5.117 -1.0188 -2.0436  2.1688
 1027WAT      O 3599   5.053   1.886   3.946 -0.1666  0.0329 -1.1921
 1027WAT     H1 3600   5.087   1.946   3.879 -0.0317 -0.7803 -1.8799
 1027WAT     H2 3601   5.042   1.802   3.899  0.0498 -0.5867 -0.1654
 1028WAT      O 3602   5.316   0.894   1.886 -0.2033  0.3878 -0.2565
 1028WAT     H1 3603   5.340   0.971   1.937  1.2975  0.9759 -1.7449
 1028WAT     H2 3604   5.244   0.922   1.830  1.2572  1.2295 -1.8265
 1029WAT      O 3605   6.410   1.186   4.077  0.4081  0.0613 -0.2324
 1029WAT     H1 3606   6.371   1.102   4.102  0.5089  0.3289  0.8843
 1029WAT     H2 3607   6.337   1.236   4.041  0.1984 -0.2590 -0.2572
 1030WAT      O 3608   5.562   5.934   2.692 -0.4513  0.1467 -0.3623
 1030WAT     H1 3609   5.576   6.005   2.754 -0.0931 -0.8870  0.7903
 1030WAT     H2 3610   5.649   5.917   2.654 -1.0314  2.2507 -2.8992
 1031WAT      O 3611   5.232   5.718   3.808 -0.1196  0.3620 -0.2286
 1031WAT     H1 3612   5.143   5.735   3.778 -0.3092  0.6447  0.4561
 1031WAT     H2 3613   5.260   5.800   3.849 -0.1431 -0.2020  0.9764
 1032WAT      O 3614   6.597   2.192   4.350 -0.0283  0.2797  0.1359
 1032WAT     H1 3615   6.584   2.101   4.325  0.7803  0.3740 -0.6920
 1032WAT     H2 3616   6.672   2.221   4.297 -1.2360  1.8856 -0.7937
 1033WAT      O 3617   4.593   2.622   5.192 -0.0207  0.3267 -0.2203
 1033WAT     H1 3618   4.555   2.682   5.128 -2.0761  0.6524  1.2251
 1033WAT     H2 3619   4.687   2.642   5.190 -0.1605  1.0202 -2.3574
 1034WAT      O 3620   6.306   3.153   2.363  0.5837  0.4166 -0.4119
 1034WAT     H1 3621   6.346   3.098   2.295  0.6222  0.3052 -0.3003
 1034WAT     H2 3622   6.261   3.222   2.315  0.3566  0.1647 -0.5624
 1035WAT      O 3623   0.828   1.499   4.153 -0.2256  0.2157 -0.2622
 1035WAT     H1 3624   0.827   1.589   4.185 -0.1335 -0.0502  0.4964
 1035WAT     H2 3625   0.735   1.476   4.145 -0.2499  0.2355 -0.0484
 1036WAT      O 3626   5.656   2.918   3.287 -0.0858  0.3446  0.2475
 1036WAT     H1 3627   5.639   3.000   3.333 -0.8674 -0.8269  2.1755
 1036WAT     H2 3628   5.745   2.927   3.253 -0.1721  1.9804  0.3832
 1037WAT      O 3629   5.913   1.882   5.279 -0.3861 -0.0034  0.0352
 1037WAT     H1 3630   5.957   1.949   5.332 -0.6828  0.6503 -0.5168
 1037WAT     H2 3631   5.982   1.819   5.258 -0.5452 -1.0495  2.3307
 1038WAT      O 3632   6.934   2.752   2.953  0.0579 -0.2408 -0.0779
 1038WAT     H1 3633   6.877   2.725   2.881  0.7208 -2.8660  0.2770
 1038WAT     H2 3634   6.878   2.806   3.009 -1.7273 -1.6349 -0.4186
 1039WAT      O 3635   1.429   1.209   1.862 -0.0823  0.0682 -0.0218
 1039WAT     H1 3636   1.392   1.284   1.909  0.3301  0.2003  0.1006
 1039WAT     H2 3637   1.478   1.162   1.930  0.3671  0.1601 -0.2789
 1040WAT      O 3638   6.131   0.531   3.472  0.7997  0.4357 -0.2015
 1040WAT     H1 3639   6.188   0.507   3.399  0.3686 -3.1349  0.4507
 1040WAT     H2 3640   6.190   0.564   3.539  1.6803  0.0512 -0.7682
 1041WAT      O 3641   7.253   6.085   3.137 -0.2032  0.0248 -0.2225
 1041WAT     H1 3642   7.327   6.027   3.156 -0.3136  0.3416  1.3544
 1041WAT     H2 3643   7.266   6.161   3.194 -2.1738 -0.3089  0.7730
 1042WAT      O 3644   6.630   3.405   3.893  0.9527  0.3492 -0.0132
 1042WAT     H1 3645   6.627   3.489   3.846 -0.5910  0.1683 -0.2967
 1042WAT     H2 3646   6.539   3.374   3.892  1.3351 -0.8761  0.9178
 1043WAT      O 3647   5.603   3.187   4.543 -0.3323 -0.3645 -0.3397
 1043WAT     H1 3648   5.529   3.247   4.553 -0.3350 -0.4488  0.1911
 1043WAT     H2 3649   5.676   3.243   4.514 -0.6816 -0.3357 -1.1969
 1044WAT      O 3650   4.859   2.630   5.064 -0.3006  0.1994 -0.4177
 1044WAT     H1 3651   4.910   2.552   5.041 -1.6658 -0.3760 -1.6606
 1044WAT     H2 3652   4.871   2.690   4.991 -0.4659  0.5447 -0.1681
 1045WAT      O 3653   6.206   2.449   2.641 -0.1892 -0.4499 -0.0385
 1045WAT     H1 3654   6.246   2.362   2.652 -0.8606 -1.0076 -1.7621
 1045WAT     H2 3655   6.276   2.510   2.665  0.3849 -1.4455  0.9139
 1046WAT      O 3656   5.712   2.221   2.251 -0.4503 -0.1250 -0.5899
 1046WAT     H1 3657   5.677   2.297   2.206  0.3132  0.1842 -0.6654
 1046WAT     H2 3658   5.642   2.195   2.311 -0.8377  0.4334 -0.7932
 1047WAT      O 3659   6.986   3.363   4.039 -0.7157 -0.7161  0.4345
 1047WAT     H1 3660   6.944   3.449   4.035 -1.7224 -1.2361 -1.1886
 1047WAT     H2 3661   7.048   3.364   3.966  0.7544 -0.6676  1.6367
 1048WAT      O 3662   6.642   1.207   2.751  0.4993  0.1045 -0.6765
 1048WAT     H1 3663   6.603   1.143   2.810 -0.4761  1.3719  0.1067
 1048WAT     H2 3664   6.567   1.256   2.717  1.2446  1.0176 -1.0250
 1049WAT      O 3665   6.490   5.537   2.799 -0.0975 -0.3177  0.2146
 1049WAT     H1 3666   6.487   5.477   2.874 -0.7143 -0.4224  0.1086
 1049WAT     H2 3667   6.401   5.571   2.792 -0.1960 -0.7664 -0.8429
 1050WAT      O 3668   0.111   2.382   3.333  0.4117  0.0708  0.8043
 1050WAT     H1 3669   0.016   2.394   3.343  0.0823 -1.0374 -0.7126
 1050WAT     H2 3670   0.149   2.452   3.386 -1.2409  0.1792  1.9174
 1051WAT      O 3671   5.192   4.846   3.589  0.1749 -0.5791  0.1152
 1051WAT     H1 3672   5.285   4.829   3.604  0.0436 -1.2406  0.1987
 1051WAT     H2 3673   5.152   4.760   3.587 -0.6816 -0.2407  1.6062
 1052WAT      O 3674   5.877   4.349   4.782 -0.2400 -0.3739 -0.5852
 1052WAT     H1 3675   5.854   4.266   4.739  0.8046 -1.1496  0.2982
 1052WAT     H2 3676   5.944   4.387   4.725 -0.6792 -0.1602 -0.9628
 1053WAT      O 3677   6.300   3.992   0.149 -0.5389  0.4956 -0.1086
 1053WAT     H1 3678   6.309   3.922   0.213  2.4238 -0.4002 -1.3372
 1053WAT     H2 3679   6.299   4.072   0.201 -0.1102 -0.2825  1.1222
 1054WAT      O 3680   6.356   3.473   4.259 -0.8222 -0.2199  0.0757
 1054WAT     H1 3681   6.437   3.455   4.306 -1.1218 -2.3950 -0.1567
 1054WAT     H2 3682   6.305   3.529   4.318  2.5014  5.2430 -1.4700
 1055WAT      O 3683   6.676   1.882   4.102  0.4331  0.6016 -0.2830
 1055WAT     H1 3684   6.586   1.911   4.097 -1.1742 -3.4405  0.8182
 1055WAT     H2 3685   6.699   1.892   4.195  0.9205  1.0946 -0.4545
 1056WAT      O 3686   5.544   1.066   3.012  0.0491  0.6288  0.4015
 1056WAT     H1 3687   5.488   1.073   2.934 -2.0037 -1.2896  1.6060
 1056WAT     H2 3688   5.578   0.977   3.009  3.1246  1.6886 -0.2258
 1057WAT      O 3689   0.541   2.646   4.823  0.3644 -0.2459  0.1048
 1057WAT     H1 3690   0.468   2.706   4.840  1.2134  1.0952 -0.7106
 1057WAT     H2 3691   0.550   2.646   4.728  3.0028  1.6990  0.2405
 1058WAT      O 3692   7.142   2.569   5.773  0.0206  0.0713 -0.3644
 1058WAT     H1 3693   7.139   2.527   5.859  0.6304  0.1684 -0.2896
 1058WAT     H2 3694   7.235   2.583   5.757 -0.0100 -0.9168 -1.5193
 1059WAT      O 3695   4.825   2.749   3.781  0.4333  0.2088 -0.4811
 1059WAT     H1 3696   4.902   2.805   3.786  0.0842  0.7684 -1.2739
 1059WAT     H2 3697   4.782   2.774   3.699 -0.3547 -0.4050 -0.2653
 1060WAT      O 3698   0.787   2.519   2.856  0.1852 -0.2232 -0.4798
 1060WAT     H1 3699   0.855   2.568   2.810  0.5365 -0.6679 -0.4369
 1060WAT     H2 3700   0.801   2.428   2.831  0.5318 -0.5099  0.6884
 1061WAT      O 3701   4.461   2.972   4.218  0.1090 -0.8913 -0.4910
 1061WAT     H1 3702   4.555   2.962   4.226  0.0632  0.0324  2.1355
 1061WAT     H2 3703   4.445   3.066   4.228 -1.0689 -0.9194 -1.6744
 1062WAT      O 3704   3.391   1.388   3.093 -0.6467 -0.1779 -0.4543
 1062WAT     H1 3705   3.415   1.480   3.094 -0.6561 -0.1304  2.5062
 1062WAT     H2 3706   3.431   1.354   3.013  0.1260  2.1605 -1.1496
 1063WAT      O 3707   0.038   2.482   4.718 -0.3862  0.1199  0.3685
 1063WAT     H1 3708   0.028   2.389   4.700  2.5073 -0.2321  0.0785
 1063WAT     H2 3709   0.020   2.525   4.634 -0.9387 -0.2294  0.3036
 1064WAT      O 3710   1.048   1.772   1.792 -0.2162 -0.3267  0.7957
 1064WAT     H1 3711   0.987   1.699   1.784 -0.0161 -0.7037  2.3235
 1064WAT     H2 3712   1.009   1.842   1.739 -1.1554 -1.0663  0.4821
 1065WAT      O 3713   5.589   2.367   3.991 -0.4324  0.2062  0.2454
 1065WAT     H1 3714   5.583   2.428   3.918 -1.6214  0.2868  0.3764
 1065WAT     H2 3715   5.500   2.364   4.026 -0.1159 -0.6507  1.0176
 1066WAT      O 3716   7.030   3.018   3.686 -0.4261 -0.7689  0.0942
 1066WAT     H1 3717   7.040   2.988   3.776  0.5612 -1.6948 -0.3033
 1066WAT     H2 3718   7.104   2.980   3.639 -1.2913 -0.8635 -1.2628
 1067WAT      O 3719   6.258   2.371   4.860  0.0993  0.0300  0.1556
 1067WAT     H1 3720   6.313   2.449   4.868  0.4513 -0.2113  0.1112
 1067WAT     H2 3721   6.315   2.299   4.884 -0.6939 -0.0738  1.8725
 1068WAT      O 3722   7.050   1.192   2.205  0.0791 -0.7698  0.3208
 1068WAT     H1 3723   7.139   1.159   2.193  0.4940 -0.3688  2.0080
 1068WAT     H2 3724   6.993   1.116   2.191  0.7060 -1.1161 -0.3898
 1069WAT      O 3725   5.174   5.128   4.380 -0.5367 -0.1614 -0.1287
 1069WAT     H1 3726   5.172   5.065   4.453  2.0848  1.1109  1.1793
 1069WAT     H2 3727   5.110   5.195   4.405 -0.4859 -0.3125  0.4190
 1070WAT      O 3728   5.104   1.453   4.873  0.2665 -0.0097  0.5015
 1070WAT     H1 3729   5.123   1.521   4.938 -0.4154 -0.6206  1.3877
 1070WAT     H2 3730   5.187   1.435   4.831  0.9353 -0.1898  1.8301
 1071WAT      O 3731   6.158   2.046   2.686 -0.1079 -0.2072 -0.5809
 1071WAT     H1 3732   6.135   2.036   2.594  0.3329 -0.4917 -0.6596
 1071WAT     H2 3733   6.233   2.105   2.686  0.5340 -0.9997 -0.4879
 1072WAT      O 3734   5.522   1.229   3.739 -0.0134  0.4406  0.2560
 1072WAT     H1 3735   5.617   1.224   3.742  0.1687  2.8311 -0.1280
 1072WAT     H2 3736   5.494   1.200   3.826  1.0084 -0.4813  0.3040
 1073WAT      O 3737   5.137   5.447   2.912  0.8936 -0.3243  0.3277
 1073WAT     H1 3738   5.185   5.526   2.936 -2.5799  1.4918  2.0286
 1073WAT     H2 3739   5.109   5.410   2.996 -0.5225 -1.3593 -0.5576
 1074WAT      O 3740   6.986   2.519   2.496 -0.3695  0.1036  0.3600
 1074WAT     H1 3741   6.932   2.463   2.440 -0.9235 -0.9744  1.8974
 1074WAT     H2 3742   6.927   2.590   2.520  0.0254  0.8491 -0.7805
 1075WAT      O 3743   5.725   3.911   3.389  0.1763  0.3575 -0.1402
 1075WAT     H1 3744   5.757   3.849   3.454 -3.2358  0.9159  2.2986
 1075WAT     H2 3745   5.661   3.862   3.337  0.4693  0.7924 -0.9346
 1076WAT      O 3746   5.990   2.303   4.781 -0.4131  0.3303 -0.2236
 1076WAT     H1 3747   6.068   2.356   4.794  0.1046 -0.1743 -1.1498
 1076WAT     H2 3748   5.957   2.330   4.695 -0.4109 -0.4944 -0.4919
 1077WAT      O 3749   4.348   2.147   1.254 -0.0254 -0.0797  0.1240
 1077WAT     H1 3750   4.319   2.071   1.304 -1.7654  0.9951  0.8532
 1077WAT     H2 3751   4.437   2.164   1.285 -0.3235 -0.6667  1.3635
 1078WAT      O 3752   6.574   4.341   3.211  0.1439  0.2058  0.3968
 1078WAT     H1 3753   6.613   4.255   3.197 -1.0482 -0.3066  0.0640
 1078WAT     H2 3754   6.573   4.352   3.306  1.4885  0.4389  0.3983
 1079WAT      O 3755   6.794   3.016   4.327 -0.4303 -0.0498 -0.5669
 1079WAT     H1 3756   6.702   3.033   4.309 -0.4537  0.6812  0.1795
 1079WAT     H2 3757   6.834   3.102   4.333  0.5878 -0.3717 -2.1926
 1080WAT      O 3758   4.642   1.747   1.911 -0.4590 -0.0859  0.0210
 1080WAT     H1 3759   4.671   1.658   1.889 -1.4005 -0.4643  0.2573
 1080WAT     H2 3760   4.670   1.800   1.836 -2.0668 -1.0345 -1.3321
 1081WAT      O 3761   6.963   0.385   3.790 -0.5150  0.1606 -0.2776
 1081WAT     H1 3762   6.943   0.473   3.821 -0.2905  0.1035  0.0257
 1081WAT     H2 3763   6.885   0.334   3.812 -0.4104  0.1512  0.0680
 1082WAT      O 3764   5.961   3.507   4.225  0.1556 -0.6326 -0.3258
 1082WAT     H1 3765   5.869   3.492   4.251  0.3544 -1.0427  0.1668
 1082WAT     H2 3766   5.996   3.564   4.293  0.4918 -1.1593 -0.0468
 1083WAT      O 3767   5.492   2.479   5.656 -0.0520  0.3891 -0.6667
 1083WAT     H1 3768   5.547   2.535   5.710 -1.2223 -0.4770  1.5311
 1083WAT     H2 3769   5.402   2.501   5.682 -0.5577 -2.8807  0.8200
 1084WAT      O 3770   5.654   2.917   5.141  0.3691 -0.2458 -0.3142
 1084WAT     H1 3771   5.620   2.926   5.052 -1.4015 -0.5314  0.2926
 1084WAT     H2 3772   5.734   2.866   5.131 -1.0166 -2.3259 -1.5528
 1085WAT      O 3773   5.302   2.703   3.721 -0.0839 -0.2962 -0.0854
 1085WAT     H1 3774   5.320   2.698   3.627  1.8775  0.7854  0.1831
 1085WAT     H2 3775   5.308   2.612   3.751  0.8312 -0.4686 -0.7573
 1086WAT      O 3776   5.061   0.544   3.883 -0.3032  0.6423 -0.1832
 1086WAT     H1 3777   5.025   0.488   3.951  0.5832  1.8945  1.3803
 1086WAT     H2 3778   5.007   0.623   3.886 -0.6181  0.4906 -1.3499
 1087WAT      O 3779   6.060   2.325   2.967 -0.1451 -0.1185 -0.3713
 1087WAT     H1 3780   6.002   2.310   3.041  0.9419 -3.5454 -0.0009
 1087WAT     H2 3781   6.004   2.311   2.890 -0.5154 -0.2012 -0.0903
 1088WAT      O 3782   4.057   3.450   5.921  0.0921  0.3796  0.6948
 1088WAT     H1 3783   4.118   3.439   5.993  1.8547 -0.8931 -0.8749
 1088WAT     H2 3784   4.057   3.544   5.904  1.9768  0.3879  0.4997
 1089WAT      O 3785   1.446   2.208   3.632 -0.4614  0.2750  0.8242
 1089WAT     H1 3786   1.377   2.258   3.676 -0.6581 -1.3708  2.5375
 1089WAT     H2 3787   1.464   2.135   3.691  2.5808  0.4683  0.3154
 1090WAT      O 3788   7.106   1.474   3.212 -0.1011 -0.5237  0.5563
 1090WAT     H1 3789   7.168   1.510   3.148  0.0393  1.5152  1.7784
 1090WAT     H2 3790   7.023   1.469   3.165  0.1086  0.4812  0.0536
 1091WAT      O 3791   3.823   1.204   3.638  0.2676 -0.3498 -0.2064
 1091WAT     H1 3792   3.771   1.253   3.575  0.0025 -0.8043 -0.3500
 1091WAT     H2 3793   3.759   1.149   3.684  0.0657  1.6972  2.1585
 1092WAT      O 3794   0.021   3.062   4.904 -0.2184 -0.0883  0.3995
 1092WAT     H1 3795   0.079   2.998   4.946  0.4272  0.1009 -0.1866
 1092WAT     H2 3796   0.067   3.145   4.911 -1.2437  0.4132  1.5284
 1093WAT      O 3797   4.044   2.033   0.203 -0.1996  0.0651  0.3087
 1093WAT     H1 3798   4.116   2.065   0.149 -1.9127  0.5267 -1.8486
 1093WAT     H2 3799   4.021   2.107   0.259 -1.7896  1.5650 -2.1272
 1094WAT      O 3800   4.938   2.703   4.557  0.5120  0.9437  0.0501
 1094WAT     H1 3801   5.024   2.690   4.598  0.3175 -0.3114  0.1006
 1094WAT     H2 3802   4.951   2.676   4.466  0.0363  0.1779  0.2011
 1095WAT      O 3803   1.139   0.290   3.037 -0.1095  0.3575  0.0294
 1095WAT     H1 3804   1.156   0.201   3.067 -3.8256  0.9070  5.3748
 1095WAT     H2 3805   1.218   0.339   3.059  0.1842 -0.8510  1.8424
 1096WAT      O 3806   5.890   2.608   5.574  0.6001  0.2816  0.3905
 1096WAT     H1 3807   5.807   2.655   5.566  0.3796 -0.1857 -0.1890
 1096WAT     H2 3808   5.948   2.669   5.620 -0.3220  0.2737  1.6221
 1097WAT      O 3809   5.676   5.873   3.799 -0.1065  0.3718 -0.1751
 1097WAT     H1 3810   5.696   5.806   3.865  0.3776 -0.5556 -1.2394
 1097WAT     H2 3811   5.597   5.916   3.833  2.5344  3.0927  3.3809
 1098WAT      O 3812   6.467   2.582   5.190  0.4246 -0.1916 -0.1077
 1098WAT     H1 3813   6.452   2.488   5.197 -0.1117 -0.1207 -0.2775
 1098WAT     H2 3814   6.561   2.593   5.205  0.2948 -0.6342  1.0369
 1099WAT      O 3815   0.627   2.066   2.706  0.0464  0.1490  0.5997
 1099WAT     H1 3816   0.542   2.024   2.686  0.3469  0.1191 -0.7231
 1099WAT     H2 3817   0.648   2.115   2.627  0.7541  1.0473  1.3335
 1100WAT      O 3818   4.798   1.522   4.680 -0.1828  0.2766  0.6496
 1100WAT     H1 3819   4.862   1.571   4.628  1.2681 -0.7053  1.4484
 1100WAT     H2 3820   4.779   1.578   4.755 -0.8592  0.8954  0.0276
 1101WAT      O 3821   6.344   2.064   4.615  0.5495  0.1219  0.3823
 1101WAT     H1 3822   6.350   2.078   4.710  0.1654 -1.3144  0.6498
 1101WAT     H2 3823   6.363   1.971   4.604 -1.4193 -0.2065 -0.7337
 1102WAT      O 3824   6.979   2.239   3.646  0.1527 -0.5266  0.5809
 1102WAT     H1 3825   6.988   2.146   3.621  1.6773 -0.6786  1.6059
 1102WAT     H2 3826   7.058   2.281   3.611  2.2554 -0.6855  4.6392
 1103WAT      O 3827   7.319   5.419   3.863 -0.5746 -0.0603  0.4288
 1103WAT     H1 3828   7.286   5.438   3.775  1.0542 -0.5776 -0.3220
 1103WAT     H2 3829   7.297   5.327   3.878 -0.1343 -0.1956  0.2372
 1104WAT      O 3830   6.064   1.660   5.162 -0.0191 -0.0723  0.0419
 1104WAT     H1 3831   6.152   1.642   5.130  0.6992  0.4594  1.5848
 1104WAT     H2 3832   6.028   1.574   5.185  0.3500 -0.2382 -0.0034
 1105WAT      O 3833   6.312   1.386   4.936  0.3699 -0.0501  0.2218
 1105WAT     H1 3834   6.218   1.367   4.929  0.4413 -1.9953  2.8629
 1105WAT     H2 3835   6.352   1.300   4.952  2.2179  1.0430  1.8349
 1106WAT      O 3836   0.070   2.653   0.144  0.3603  0.2658 -0.5087
 1106WAT     H1 3837   0.028   2.586   0.198 -1.1351  0.1652 -1.7214
 1106WAT     H2 3838   0.016   2.731   0.156 -0.1212  0.1870 -1.9672
 1107WAT      O 3839   7.100   1.179   3.210  0.0917 -0.4117  0.1846
 1107WAT     H1 3840   7.148   1.214   3.284  1.1715  0.3756 -0.8599
 1107WAT     H2 3841   7.041   1.250   3.183 -0.1797 -0.6377  0.1712
 1108WAT      O 3842   6.871   2.584   5.788 -0.0143  0.2936  0.5016
 1108WAT     H1 3843   6.960   2.560   5.761 -0.5518 -1.8062  0.3670
 1108WAT     H2 3844   6.875   2.678   5.804  2.1078  0.3374  0.0415
 1109WAT      O 3845   4.645   2.609   4.326 -0.2339  0.4536 -0.1394
 1109WAT     H1 3846   4.629   2.663   4.248  0.9698  0.2704 -0.5310
 1109WAT     H2 3847   4.673   2.524   4.291  1.3133  0.6746  0.4743
 1110WAT      O 3848   4.762   2.006   1.175  0.2621  0.3577 -0.4104
 1110WAT     H1 3849   4.809   2.004   1.092  1.8032  2.1221  0.3339
 1110WAT     H2 3850   4.787   1.924   1.219  3.6962  1.6521  0.3899
 1111WAT      O 3851   7.148   2.234   3.270  0.4002  0.5010  0.0781
 1111WAT     H1 3852   7.086   2.255   3.199  1.4059  2.4193 -0.2816
 1111WAT     H2 3853   7.107   2.160   3.315 -1.8142  1.2516 -0.5650
 1112WAT      O 3854   7.026   0.202   3.381  0.2676 -0.4014  0.1325
 1112WAT     H1 3855   6.989   0.203   3.293 -0.6357  1.6361  0.4614
 1112WAT     H2 3856   6.952   0.183   3.439  0.7658 -1.3121  0.4837
 1113WAT      O 3857   0.307   1.163   3.647 -0.0343 -0.1191 -0.0592
 1113WAT     H1 3858   0.338   1.180   3.736  0.2589  2.5635 -0.5905
 1113WAT     H2 3859   0.344   1.233   3.595 -0.5660 -1.3779 -2.2544
 1114WAT      O 3860   5.911   0.974   4.099  0.0477 -0.5117  0.0185
 1114WAT     H1 3861   5.957   0.890   4.105  0.8170 -0.1135 -0.1742
 1114WAT     H2 3862   5.880   0.978   4.009 -0.1773 -0.6852  0.0880
 1115WAT      O 3863   1.546   1.945   4.940 -0.2672 -0.1542 -0.4850
 1115WAT     H1 3864   1.593   1.900   5.011  0.0170 -0.9480 -1.1583
 1115WAT     H2 3865   1.585   1.910   4.860  0.1955  1.5592 -1.0375
 1116WAT      O 3866   6.150   2.945   3.573 -0.2153  0.0399  0.1050
 1116WAT     H1 3867   6.119   2.899   3.651  0.3994  0.1784  0.4279
 1116WAT     H2 3868   6.146   2.878   3.504  1.1179 -0.6457  0.6711
 1117WAT      O 3869   6.558   0.970   3.782  0.1024  0.3853  0.3081
 1117WAT     H1 3870   6.648   0.941   3.766  0.4819  0.8250  1.5269
 1117WAT     H2 3871   6.564   1.066   3.784 -0.8437  0.5669 -2.0075
 1118WAT      O 3872   6.845   2.860   3.546 -0.1184  0.1543 -0.1172
 1118WAT     H1 3873   6.786   2.820   3.610  0.0737  1.1550  0.7183
 1118WAT     H2 3874   6.899   2.920   3.597  0.7421  0.2210 -1.0699
 1119WAT      O 3875   5.659   3.637   2.898 -0.0141  0.4835  0.2890
 1119WAT     H1 3876   5.742   3.596   2.873 -0.5172 -0.3738 -0.0412
 1119WAT     H2 3877   5.593   3.571   2.877 -1.2081  2.4909 -2.9730
 1120WAT      O 3878   5.230   0.840   3.155  0.0039  0.0702  0.6277
 1120WAT     H1 3879   5.281   0.781   3.099  0.0043 -0.9789  1.6953
 1120WAT     H2 3880   5.287   0.858   3.229  0.2886  2.0451 -0.0168
 1121WAT      O 3881   5.525   3.935   4.576  0.9371 -0.2887 -0.0982
 1121WAT     H1 3882   5.481   3.905   4.496  1.0140 -2.0363  0.4779
 1121WAT     H2 3883   5.455   3.975   4.628  0.1018 -2.3681  0.4810
 1122WAT      O 3884   6.202   1.409   3.407 -0.2024 -0.2169  0.4671
 1122WAT     H1 3885   6.200   1.482   3.346  1.8504 -0.8866 -0.4722
 1122WAT     H2 3886   6.125   1.357   3.385  1.1255 -1.1137 -2.4946
 1123WAT      O 3887   5.342   2.221   4.719  0.7371 -0.3115  0.9277
 1123WAT     H1 3888   5.253   2.186   4.722  0.2843  0.7242  0.1220
 1123WAT     H2 3889   5.358   2.237   4.626  1.7614 -0.4516  1.0719
 1124WAT      O 3890   5.241   2.625   5.748 -0.5445 -0.0815  0.0860
 1124WAT     H1 3891   5.175   2.661   5.688 -0.1324  1.6263  0.6089
 1124WAT     H2 3892   5.192   2.566   5.805 -1.3035 -0.1667 -0.6358
 1125WAT      O 3893   7.014   5.840   3.464  0.5040  0.1119  0.4941
 1125WAT     H1 3894   6.936   5.859   3.515 -0.5387  0.7370 -1.2701
 1125WAT     H2 3895   7.011   5.745   3.451 -0.8552  0.3001 -0.8693
 1126WAT      O 3896   3.488   2.284   4.657 -0.1394  0.3139 -0.2608
 1126WAT     H1 3897   3.510   2.365   4.610 -0.8432  0.3274 -0.5806
 1126WAT     H2 3898   3.527   2.295   4.743  2.4342 -0.2951 -1.2401
 1127WAT      O 3899   5.888   2.746   2.046 -0.1193 -0.3481  0.8952
 1127WAT     H1 3900   5.983   2.737   2.039 -0.0797  1.0631 -1.9625
 1127WAT     H2 3901   5.860   2.774   1.958 -2.9355  1.2398  2.1534
 1128WAT      O 3902   5.105   0.349   2.694 -0.3961  0.5040 -0.4531
 1128WAT     H1 3903   5.043   0.277   2.678 -3.0303  2.3820  0.5573
 1128WAT     H2 3904   5.138   0.371   2.607 -1.0282 -0.6549 -1.0245
 1129WAT      O 3905   6.390   1.756   3.488 -0.5534  0.3842 -0.2669
 1129WAT     H1 3906   6.451   1.791   3.552 -0.2031 -2.6102  1.2291
 1129WAT     H2 3907   6.426   1.783   3.403 -0.1421  3.0754  0.6944
 1130WAT      O 3908   4.030   5.756   5.310 -0.0477  0.0889  0.2542
 1130WAT     H1 3909   3.961   5.718   5.364  0.7773 -0.6498  0.8089
 1130WAT     H2 3910   4.040   5.694   5.237  1.2276 -0.7377  1.1043
 1131WAT      O 3911   6.865   0.045   3.761 -0.3285 -0.0183  0.6602
 1131WAT     H1 3912   6.955   0.053   3.793  0.4871 -0.9961 -1.2330
 1131WAT     H2 3913   6.844  -0.047   3.771 -0.3694 -0.1798 -0.7128
 1132WAT      O 3914   6.982   1.137   3.687  0.4457  0.3917 -0.0727
 1132WAT     H1 3915   7.066   1.169   3.653  0.6925  1.5384  1.5087
 1132WAT     H2 3916   7.005   1.058   3.736  0.5419  0.4745  0.0164
 1133WAT      O 3917   6.475   0.790   4.101 -0.1994 -0.4823 -0.3517
 1133WAT     H1 3918   6.474   0.702   4.139 -1.3205  0.1646  1.2093
 1133WAT     H2 3919   6.566   0.803   4.074  0.4444 -1.3389  1.3057
 1134WAT      O 3920   6.223   2.561   4.559  0.8740  0.4945  0.3068
 1134WAT     H1 3921   6.214   2.535   4.467  0.8265 -0.7131  0.6435
 1134WAT     H2 3922   6.271   2.489   4.600  0.7898  0.9649  1.2652
 1135WAT      O 3923   6.867   1.410   3.117 -0.0658 -0.0903  0.2011
 1135WAT     H1 3924   6.862   1.386   3.024 -0.1093  0.1591  0.1405
 1135WAT     H2 3925   6.801   1.477   3.128  1.4539  1.5227 -0.0970
 1136WAT      O 3926   4.631   2.179   4.937 -0.2449  0.4127  0.2813
 1136WAT     H1 3927   4.702   2.144   4.991  0.4624 -1.7619 -1.8911
 1136WAT     H2 3928   4.649   2.273   4.932  1.8689  0.0720  0.6532
 1137WAT      O 3929   6.454   3.099   5.957  0.3350 -0.0493  0.7149
 1137WAT     H1 3930   6.446   3.114   6.051  0.4408 -1.7215  1.0089
 1137WAT     H2 3931   6.545   3.122   5.937  0.8295 -1.3558  1.3719
 1138WAT      O 3932   5.544   0.161   2.595 -0.1873  0.3800 -0.0856
 1138WAT     H1 3933   5.494   0.157   2.677 -0.3692  1.0841 -0.1601
 1138WAT     H2 3934   5.588   0.076   2.590 -1.1487 -0.1436  0.1241
 1139WAT      O 3935   5.017   2.003   3.394 -0.3600 -0.3643 -0.3324
 1139WAT     H1 3936   5.003   1.984   3.301 -0.8748  0.2757 -0.3941
 1139WAT     H2 3937   4.967   1.936   3.440 -0.2864 -0.5481 -0.5154
 1140WAT      O 3938   5.474   2.508   4.227  1.0704  0.3671  0.4078
 1140WAT     H1 3939   5.381   2.496   4.207  1.2337 -1.8767  0.7207
 1140WAT     H2 3940   5.505   2.571   4.162 -0.1918 -0.5229 -1.1190
 1141WAT      O 3941   4.657   1.085   2.254  0.4313  0.5899 -0.0876
 1141WAT     H1 3942   4.705   1.129   2.184  0.3133 -0.5005 -0.8718
 1141WAT     H2 3943   4.568   1.078   2.222  0.1061  1.1137  0.6669
 1142WAT      O 3944   1.392   2.988   3.561  0.8234 -0.0144 -0.2402
 1142WAT     H1 3945   1.383   2.928   3.487 -1.8110  2.6417 -2.2856
 1142WAT     H2 3946   1.450   3.057   3.530 -0.4595  1.2285 -0.0181
 1143WAT      O 3947   6.177   1.476   4.195 -0.4848  0.0123  0.5748
 1143WAT     H1 3948   6.244   1.471   4.263  1.1975 -0.0146 -1.0051
 1143WAT     H2 3949   6.202   1.408   4.132 -3.3483 -1.6250  1.0177
 1144WAT      O 3950   6.132   2.935   5.038 -0.4875 -0.1630  0.0245
 1144WAT     H1 3951   6.172   2.970   5.118  1.3374 -2.4802  0.2516
 1144WAT     H2 3952   6.049   2.896   5.068 -1.5544  2.0115  0.0927
 1145WAT      O 3953   7.364   1.858   4.605 -0.2498 -0.1786  0.2298
 1145WAT     H1 3954   7.288   1.802   4.623 -0.5335 -0.0751 -0.6233
 1145WAT     H2 3955   7.346   1.939   4.654 -0.9556  0.0568 -0.3951
 1146WAT      O 3956   6.211   1.320   3.956 -0.0974 -0.1262  0.9505
 1146WAT     H1 3957   6.157   1.247   3.926  0.1398  0.5402 -1.2865
 1146WAT     H2 3958   6.235   1.366   3.876  1.7419  1.0305  2.0951
 1147WAT      O 3959   7.411   0.201   3.039  0.2198  0.0411 -0.1045
 1147WAT     H1 3960   7.348   0.273   3.052 -0.1482 -0.4709  1.1212
 1147WAT     H2 3961   7.494   0.236   3.069  0.1224  0.0894  0.1118
 1148WAT      O 3962   3.750   2.648   5.163  0.1121 -0.7977 -0.0358
 1148WAT     H1 3963   3.706   2.709   5.103 -0.9385 -0.7654  0.7390
 1148WAT     H2 3964   3.816   2.606   5.109 -0.4981 -0.4391 -1.1091
 1149WAT      O 3965   5.580   1.483   3.603 -0.7317 -0.0912  0.1232
 1149WAT     H1 3966   5.613   1.429   3.530  0.8257  1.0573 -0.0840
 1149WAT     H2 3967   5.554   1.419   3.670 -1.6287 -1.1609 -1.1884
 1150WAT      O 3968   6.577   2.632   5.514  0.2719 -0.1574 -0.1820
 1150WAT     H1 3969   6.500   2.602   5.467  0.4202 -0.3573 -0.2993
 1150WAT     H2 3970   6.650   2.618   5.453  0.6094 -1.4037  0.4853
 1151WAT      O 3971   5.660   2.809   3.549 -0.9607  0.7078 -0.6662
 1151WAT     H1 3972   5.591   2.866   3.583 -0.8816  1.5747 -1.8863
 1151WAT     H2 3973   5.674   2.839   3.459 -0.4766 -0.8573 -1.1474
 1152WAT      O 3974   2.696   0.781   3.906  0.4128  0.1733 -0.5358
 1152WAT     H1 3975   2.744   0.705   3.873  0.0557  0.6193 -2.1381
 1152WAT     H2 3976   2.748   0.811   3.981  1.8092 -0.2816 -1.2886
 1153WAT      O 3977   6.281   4.042   4.573 -0.0611  0.0537 -0.4144
 1153WAT     H1 3978   6.302   4.052   4.480  1.3159  2.4061  0.0664
 1153WAT     H2 3979   6.320   4.119   4.615 -2.3223  0.0858  1.8672
 1154WAT      O 3980   5.404   3.291   2.931  0.2087  0.4874 -0.1794
 1154WAT     H1 3981   5.314   3.259   2.927  0.2854  0.3507 -0.9498
 1154WAT     H2 3982   5.402   3.362   2.996  0.0436 -1.0584  1.5875
 1155WAT      O 3983   6.464   1.225   3.201 -0.5982  0.4609 -0.2708
 1155WAT     H1 3984   6.493   1.141   3.166  0.9370  0.7619  0.1622
 1155WAT     H2 3985   6.413   1.203   3.279  2.9970 -0.1183  2.1771
 1156WAT      O 3986   6.152   2.419   0.107 -0.2214 -0.1835  0.1355
 1156WAT     H1 3987   6.215   2.447   0.174 -0.1047 -0.4892  0.1537
 1156WAT     H2 3988   6.196   2.433   0.024 -1.2765  2.6321 -0.0553
 1157WAT      O 3989   6.019   5.690   2.908 -0.2047  0.1241 -0.4812
 1157WAT     H1 3990   6.086   5.651   2.852 -1.0058 -0.4898 -1.0387
 1157WAT     H2 3991   6.004   5.777   2.870 -0.1073  0.0580 -0.6718
 1158WAT      O 3992   6.685   3.151   3.751 -0.1682 -0.2612 -0.7479
 1158WAT     H1 3993   6.705   3.091   3.823  0.9869 -0.9900 -1.6474
 1158WAT     H2 3994   6.670   3.235   3.795  1.4769 -0.4635  0.3071
 1159WAT      O 3995   5.374   3.664   4.411 -0.0432 -0.1070  0.8419
 1159WAT     H1 3996   5.439   3.620   4.465  0.8687  0.7380  0.4666
 1159WAT     H2 3997   5.344   3.597   4.349  0.8250 -0.3807  0.7084
 1160WAT      O 3998   0.043   1.106   3.597  0.1041 -0.3959  0.0404
 1160WAT     H1 3999   0.048   1.099   3.501  0.9305  1.1360 -0.0714
 1160WAT     H2 4000   0.132   1.133   3.623 -0.7582  1.8049  0.9396
 1161WAT      O 4001   0.215   2.215   3.919 -0.4899 -0.1455 -0.2809
 1161WAT     H1 4002   0.148   2.160   3.961 -0.1112 -2.0641 -2.0184
 1161WAT     H2 4003   0.294   2.198   3.970 -0.9193  0.8332  0.7542
 1162WAT      O 4004   0.722   1.160   4.156  0.1975  0.3511  0.5575
 1162WAT     H1 4005   0.674   1.177   4.238 -0.5193 -1.0963  0.4786
 1162WAT     H2 4006   0.812   1.146   4.184 -0.3993 -2.2840  1.4447
 1163WAT      O 4007   7.378   3.440   3.026 -0.9335 -0.1238  0.4441
 1163WAT     H1 4008   7.356   3.509   2.964 -0.9768 -0.3285  0.2325
 1163WAT     H2 4009   7.447   3.478   3.080 -1.1254  0.1723  0.4842
 1164WAT      O 4010   1.295   0.874   1.515  0.4285  0.2752  0.3347
 1164WAT     H1 4011   1.367   0.935   1.495  0.5638 -0.3125 -1.1103
 1164WAT     H2 4012   1.296   0.866   1.610  0.9403  1.8827  0.4986
 1165WAT      O 4013   1.322   1.757   1.399  0.8052 -0.1940  1.1571
 1165WAT     H1 4014   1.314   1.851   1.414 -0.7218 -0.1757  0.4514
 1165WAT     H2 4015   1.240   1.721   1.434  0.0950 -0.8995 -1.0549
 1166WAT      O 4016   6.138   3.277   3.175 -0.5119  0.7078 -0.3366
 1166WAT     H1 4017   6.053   3.263   3.217 -0.5847  1.0105 -0.3780
 1166WAT     H2 4018   6.178   3.190   3.171 -0.8603  0.5490 -0.4034
 1167WAT      O 4019   4.898   3.317   2.619 -0.1862  0.3848  0.1458
 1167WAT     H1 4020   4.924   3.397   2.572  1.0451  0.3487  0.7393
 1167WAT     H2 4021   4.967   3.254   2.598 -0.3823 -0.0717  0.8678
 1168WAT      O 4022   4.923   1.989   2.262 -0.3156  1.0897 -0.2853
 1168WAT     H1 4023   5.016   1.967   2.250  0.0050  2.5668 -0.6820
 1168WAT     H2 4024   4.881   1.963   2.181 -0.8555 -2.2867  0.9152
 1169WAT      O 4025   6.347   2.818   0.186 -0.1615  0.2398 -0.1411
 1169WAT     H1 4026   6.442   2.821   0.179 -0.1003 -0.4985  0.2628
 1169WAT     H2 4027   6.315   2.874   0.115  0.5822  0.9373  0.0666
 1170WAT      O 4028   5.169   2.901   2.562 -0.3333  0.1835 -0.4524
 1170WAT     H1 4029   5.124   2.824   2.528 -0.5961 -0.7561  1.8739
 1170WAT     H2 4030   5.239   2.866   2.617 -0.8946  1.5733  1.2468
 1171WAT      O 4031   5.731   3.386   3.064 -0.0437  0.2116 -0.3851
 1171WAT     H1 4032   5.777   3.409   2.983  1.6081 -3.7993 -0.8356
 1171WAT     H2 4033   5.800   3.378   3.129 -0.9469  0.1861  0.5952
 1172WAT      O 4034   5.949   2.787   1.515  0.0698  0.4875  0.1350
 1172WAT     H1 4035   5.893   2.710   1.502 -0.3055  0.9654 -1.3067
 1172WAT     H2 4036   5.904   2.857   1.467  0.8090  1.4135  0.7682
 1173WAT      O 4037   7.260   3.022   0.583  0.2902 -0.5003  0.7327
 1173WAT     H1 4038   7.322   3.075   0.532 -0.3730 -0.1770  0.2521
 1173WAT     H2 4039   7.273   3.051   0.673 -1.7771  2.3424  0.2475
 1174WAT      O 4040   7.357   5.586   2.912 -0.2245 -0.8898  0.0195
 1174WAT     H1 4041   7.302   5.529   2.857  1.7300 -1.3923 -1.5612
 1174WAT     H2 4042   7.331   5.674   2.888 -2.6866 -1.0022  1.8601
 1175WAT      O 4043   5.931   2.454   0.559  0.6997  0.5528  0.2979
 1175WAT     H1 4044   5.953   2.409   0.641  1.4873  0.9526  0.3199
 1175WAT     H2 4045   5.911   2.544   0.586  0.4621  0.5551  0.1082
 1176WAT      O 4046   6.490   1.553   3.893  0.6324 -0.3834 -0.3082
 1176WAT     H1 4047   6.441   1.544   3.812  3.0394 -0.4443 -1.8536
 1176WAT     H2 4048   6.435   1.610   3.948 -0.6448  0.4314 -2.3268
 1177WAT      O 4049   0.164   3.020   2.242 -0.0660  0.1140  0.1547
 1177WAT     H1 4050   0.151   3.009   2.148  0.1398 -0.1298  0.1563
 1177WAT     H2 4051   0.215   2.944   2.269  1.0503  0.8662  0.2237
 1178WAT      O 4052   5.643   1.895   2.298  0.3258 -0.4786  0.0641
 1178WAT     H1 4053   5.629   1.941   2.216  0.5238  3.6247  2.0709
 1178WAT     H2 4054   5.563   1.845   2.312  0.0735 -0.8306 -2.2859
 1179WAT      O 4055   5.442   2.825   1.354 -0.1394 -0.3463 -0.2154
 1179WAT     H1 4056   5.534   2.825   1.326  0.6462 -0.4848  2.1480
 1179WAT     H2 4057   5.435   2.900   1.413 -0.8537 -1.7096  1.5431
 1180WAT      O 4058   6.798   2.160   1.175  0.3820 -0.2571 -0.0215
 1180WAT     H1 4059   6.804   2.244   1.221  1.7049  0.3141 -1.1810
 1180WAT     H2 4060   6.817   2.095   1.243 -2.4245  0.1573  1.3427
 1181WAT      O 4061   6.205   0.123   1.733 -0.5720 -0.0286  0.4885
 1181WAT     H1 4062   6.163   0.057   1.679  0.5912  1.2179 -2.0923
 1181WAT     H2 4063   6.293   0.089   1.748 -0.4047  0.3073  0.2900
 1182WAT      O 4064   6.657   1.589   3.268  0.2454  0.0819 -0.4400
 1182WAT     H1 4065   6.633   1.681   3.284  1.0542  0.3825 -0.8659
 1182WAT     H2 4066   6.715   1.567   3.342 -1.3639 -0.6682  0.6417
 1183WAT      O 4067   1.387   0.944   3.337  0.3035  0.2451  0.0913
 1183WAT     H1 4068   1.433   0.961   3.419 -0.2609 -0.0373  0.4771
 1183WAT     H2 4069   1.432   0.868   3.299  0.5115  0.3253  0.1778
 1184WAT      O 4070   6.136   1.182   2.717  0.0485  0.2056  0.6088
 1184WAT     H1 4071   6.162   1.197   2.808  1.2844 -1.3620  0.5752
 1184WAT     H2 4072   6.092   1.097   2.719 -1.7176  1.0616  0.0127
 1185WAT      O 4073   6.645   3.445   2.782  0.3670  0.0930  0.1301
 1185WAT     H1 4074   6.666   3.527   2.737  0.1741  0.4079  0.6035
 1185WAT     H2 4075   6.572   3.408   2.732  0.5760  0.1149 -0.1938
 1186WAT      O 4076   6.509   2.205   2.934 -0.1122 -0.0062  0.3098
 1186WAT     H1 4077   6.450   2.193   3.009 -0.5034  0.8533  0.1397
 1186WAT     H2 4078   6.556   2.285   2.954 -0.9411  0.7884 -0.8422
 1187WAT      O 4079   6.736   2.663   1.260 -0.0661  0.1970  0.1520
 1187WAT     H1 4080   6.644   2.684   1.274 -0.2103 -1.0828  1.3182
 1187WAT     H2 4081   6.774   2.743   1.223 -1.5443  0.8793  0.0656
 1188WAT      O 4082   6.900   3.564   1.570  0.6735  0.1927 -0.2287
 1188WAT     H1 4083   6.883   3.657   1.585 -0.0839 -0.3065  2.5954
 1188WAT     H2 4084   6.839   3.540   1.500 -0.0431  1.5422 -0.1103
 1189WAT      O 4085   7.409   2.703   3.051  0.2832 -0.3581 -0.1287
 1189WAT     H1 4086   7.473   2.638   3.080  0.6409  0.9177  2.1738
 1189WAT     H2 4087   7.458   2.761   2.993  0.6260 -0.6619 -0.1422
 1190WAT      O 4088   1.541   3.053   1.612  0.2888  0.1785  0.0516
 1190WAT     H1 4089   1.514   3.036   1.521 -1.0181 -0.2565  0.5029
 1190WAT     H2 4090   1.618   2.998   1.624  1.5191  1.4984 -1.2924
 1191WAT      O 4091   0.167   3.233   2.520  0.4392 -0.0549 -0.1699
 1191WAT     H1 4092   0.131   3.241   2.432 -0.8628  1.2869  0.4345
 1191WAT     H2 4093   0.202   3.319   2.540 -2.9079  1.0099  2.0466
 1192WAT      O 4094   5.712   1.277   2.027  0.4727  0.1911  0.1672
 1192WAT     H1 4095   5.730   1.315   2.113  2.2060  1.9139 -0.9036
 1192WAT     H2 4096   5.797   1.273   1.984 -0.4331 -0.1390 -1.6805
 1193WAT      O 4097   5.891   4.646   0.488  0.3288 -0.3929 -0.5647
 1193WAT     H1 4098   5.878   4.624   0.395  0.5896  0.9734 -0.9479
 1193WAT     H2 4099   5.864   4.738   0.494  0.4121 -0.4387  0.7044
 1194WAT      O 4100   6.883   4.627   2.569  0.4806  0.3901 -0.4433
 1194WAT     H1 4101   6.943   4.655   2.639 -0.1845  0.1624  0.2382
 1194WAT     H2 4102   6.796   4.643   2.605  0.1166  1.0796 -1.5692
 1195WAT      O 4103   6.131   2.758   3.374  0.0388  0.3597 -0.4971
 1195WAT     H1 4104   6.222   2.782   3.354 -0.3418  2.0305 -0.4345
 1195WAT     H2 4105   6.096   2.725   3.291  0.4427  0.6084 -0.7737
 1196WAT      O 4106   5.063   2.379   3.260 -0.1937 -0.2037 -0.0824
 1196WAT     H1 4107   4.983   2.329   3.243  0.3629 -1.7693  1.6244
 1196WAT     H2 4108   5.126   2.343   3.198 -0.4474  0.1101 -0.5279
 1197WAT      O 4109   0.485   2.372   0.698  0.0407  0.2673  0.4209
 1197WAT     H1 4110   0.521   2.351   0.785  0.0874 -0.7968  0.1470
 1197WAT     H2 4111   0.544   2.329   0.637 -0.5828  0.1549 -0.1064
 1198WAT      O 4112   5.721   2.494   3.262 -0.2213 -0.5112 -0.2772
 1198WAT     H1 4113   5.785   2.544   3.312  0.3129  0.2881 -1.7158
 1198WAT     H2 4114   5.771   2.423   3.222  0.2174  1.0544 -2.7596
 1199WAT      O 4115   5.889   4.458   1.025 -0.1567  0.5426  0.6268
 1199WAT     H1 4116   5.966   4.511   1.003 -0.8113  1.5402  0.6839
 1199WAT     H2 4117   5.905   4.430   1.115 -0.1034  1.2142  0.8364
 1200WAT      O 4118   6.663   4.002   1.073  0.4007 -0.0482  0.5289
 1200WAT     H1 4119   6.736   4.020   1.133 -1.0095  3.2330  1.5134
 1200WAT     H2 4120   6.651   4.085   1.026 -2.5062 -0.5460  0.2372
 1201WAT      O 4121   4.459   1.120   5.876 -0.3613  0.7477 -0.4239
 1201WAT     H1 4122   4.371   1.100   5.844 -0.7856  0.2908  0.9524
 1201WAT     H2 4123   4.465   1.215   5.871 -1.3529  0.8735  0.4630
 1202WAT      O 4124   4.710   3.298   1.658 -0.1975  0.0919 -0.9053
 1202WAT     H1 4125   4.742   3.236   1.723  0.0631 -0.8302 -1.8792
 1202WAT     H2 4126   4.634   3.255   1.619 -0.8357  0.9827 -0.6565
 1203WAT      O 4127   5.065   3.320   0.894  0.0640  0.0745 -1.0231
 1203WAT     H1 4128   5.119   3.245   0.918  0.5259  0.7994  0.3391
 1203WAT     H2 4129   5.097   3.391   0.950 -2.0240  0.6428 -0.4433
 1204WAT      O 4130   4.577   4.341   2.169 -0.0193  0.5709 -0.0721
 1204WAT     H1 4131   4.599   4.329   2.262  0.1414  0.2518 -0.1462
 1204WAT     H2 4132   4.558   4.252   2.138 -1.1370  0.8082 -0.0870
 1205WAT      O 4133   6.817   2.644   0.648 -0.2846 -0.0799  0.2707
 1205WAT     H1 4134   6.883   2.574   0.652 -0.5014 -0.3777 -0.8689
 1205WAT     H2 4135   6.844   2.706   0.715  0.4735 -0.7882  0.6405
 1206WAT      O 4136   5.126   4.191   1.009 -0.5324  0.0831 -0.0767
 1206WAT     H1 4137   5.065   4.227   0.944 -2.1651 -0.7376  0.9386
 1206WAT     H2 4138   5.076   4.191   1.091  1.8207  2.1200  1.5018
 1207WAT      O 4139   0.651   2.812   0.632  0.6919  0.3871 -0.7303
 1207WAT     H1 4140   0.693   2.728   0.614 -1.0837 -0.7212  0.0226
 1207WAT     H2 4141   0.611   2.836   0.549  1.4410  0.6651 -1.0248
 1208WAT      O 4142   0.419   2.563   1.538  0.3323 -0.0705 -1.0840
 1208WAT     H1 4143   0.431   2.535   1.447 -1.1242 -0.2092 -1.2500
 1208WAT     H2 4144   0.499   2.536   1.582  0.7484 -0.6559 -2.1646
 1209WAT      O 4145   6.656   4.080   2.849  0.6883 -0.0189 -0.0228
 1209WAT     H1 4146   6.643   4.093   2.755 -1.8783  1.2374  0.4010
 1209WAT     H2 4147   6.713   4.152   2.876  1.8220 -0.6563 -0.6519
 1210WAT      O 4148   7.041   3.846   2.320  0.0937 -0.9053 -0.0933
 1210WAT     H1 4149   7.068   3.755   2.318 -1.7602 -1.5080 -0.0199
 1210WAT     H2 4150   7.003   3.862   2.233  0.8385 -0.0434 -0.2799
 1211WAT      O 4151   5.351   0.321   2.214 -0.3822  0.3577  0.1195
 1211WAT     H1 4152   5.327   0.282   2.297 -1.6966  1.5904  0.3539
 1211WAT     H2 4153   5.349   0.249   2.151  3.0895 -1.1653  1.4850
 1212WAT      O 4154   5.418   2.924   3.169  0.0709  0.3539  0.1997
 1212WAT     H1 4155   5.513   2.928   3.177  0.3259 -0.1454 -2.0045
 1212WAT     H2 4156   5.386   2.993   3.228  1.7226  0.1194  1.4504
 1213WAT      O 4157   7.246   0.911   2.169 -0.5039  0.4019  0.2562
 1213WAT     H1 4158   7.331   0.874   2.191 -1.0363 -0.3890  1.0430
 1213WAT     H2 4159   7.265   1.002   2.145  0.3959  0.6820  1.8456
 1214WAT      O 4160   7.327   2.952   0.246 -0.6043 -0.0358  0.7216
 1214WAT     H1 4161   7.235   2.928   0.250 -0.2494 -1.3510  1.9247
 1214WAT     H2 4162   7.344   2.995   0.330  0.1807 -1.0667  1.1109
 1215WAT      O 4163   5.368   5.558   2.430 -0.0122 -0.0983  0.5604
 1215WAT     H1 4164   5.428   5.496   2.389 -1.1238 -0.4228 -0.6728
 1215WAT     H2 4165   5.414   5.641   2.430  1.4049 -0.8318  1.9946
 1216WAT      O 4166   6.472   2.559   2.693 -0.2234 -0.1443 -0.2873
 1216WAT     H1 4167   6.565   2.538   2.700 -0.4300 -0.7831  0.8821
 1216WAT     H2 4168   6.459   2.582   2.601  1.0511 -0.1921 -0.5018
 1217WAT      O 4169   1.720   2.169   1.626 -0.0998 -0.2358 -0.2222
 1217WAT     H1 4170   1.786   2.211   1.571  0.6645 -1.3317 -0.1768
 1217WAT     H2 4171   1.714   2.225   1.703  1.7533 -0.7682  0.3635
 1218WAT      O 4172   6.615   1.580   1.911  0.0169 -0.4740  0.1439
 1218WAT     H1 4173   6.678   1.541   1.972 -0.7240 -0.0469  1.2054
 1218WAT     H2 4174   6.599   1.511   1.847 -0.6189 -1.6634  1.5052
 1219WAT      O 4175   0.141   1.725   2.187 -0.4200  0.7076 -0.4733
 1219WAT     H1 4176   0.125   1.702   2.278  1.1220 -2.1979 -0.8069
 1219WAT     H2 4177   0.222   1.776   2.189  0.3072 -0.4196 -0.2668
 1220WAT      O 4178   6.390   1.727   1.919  0.2413  0.0178 -0.8557
 1220WAT     H1 4179   6.318   1.665   1.918  0.3882 -0.3286  2.0352
 1220WAT     H2 4180   6.468   1.674   1.937  0.3611  0.9402  1.7695
 1221WAT      O 4181   4.948   1.787   3.586  0.8418  0.3077  0.1675
 1221WAT     H1 4182   4.880   1.832   3.636  0.9584  1.7170 -0.9026
 1221WAT     H2 4183   4.900   1.733   3.523  0.5727  2.8389 -1.9893
 1222WAT      O 4184   3.205   2.157   1.969 -0.1776 -0.3084  0.2885
 1222WAT     H1 4185   3.246   2.220   1.910 -1.1211  0.1390  0.0864
 1222WAT     H2 4186   3.131   2.205   2.007 -0.8835 -1.2692  0.1608
 1223WAT      O 4187   6.111   2.437   2.174  0.8157  0.6875 -0.0048
 1223WAT     H1 4188   6.098   2.413   2.082  0.5991 -2.1999  0.6640
 1223WAT     H2 4189   6.024   2.465   2.204  0.2893 -0.7530 -0.1053
 1224WAT      O 4190   6.024   1.701   2.782  0.0889  0.1012 -0.3172
 1224WAT     H1 4191   5.986   1.677   2.697  0.3989 -2.5168  0.1753
 1224WAT     H2 4192   5.949   1.702   2.842 -0.0208  1.1468 -0.4645
 1225WAT      O 4193   7.403   2.936   2.556  0.1055  0.2227 -0.2294
 1225WAT     H1 4194   7.315   2.899   2.554 -0.3913  1.3062  0.2460
 1225WAT     H2 4195   7.401   3.007   2.491 -0.1412  1.7969  1.4098
 1226WAT      O 4196   6.999   2.910   1.864 -0.0717  0.0213 -0.6159
 1226WAT     H1 4197   6.937   2.929   1.794 -0.7286  0.4651  0.0747
 1226WAT     H2 4198   6.948   2.919   1.945  0.5032 -1.1522 -0.1006
 1227WAT      O 4199   1.263   3.169   2.383  0.3235 -0.0058  0.2409
 1227WAT     H1 4200   1.340   3.112   2.392  2.0610  1.9776 -1.1175
 1227WAT     H2 4201   1.220   3.164   2.468 -0.3461 -4.1911 -0.1396
 1228WAT      O 4202   6.846   3.235   3.117  0.3147  0.1418  0.0809
 1228WAT     H1 4203   6.833   3.326   3.091 -0.7682 -0.2549 -0.8539
 1228WAT     H2 4204   6.916   3.203   3.059 -0.7211 -0.1704 -1.0612
 1229WAT      O 4205   3.341   2.156   4.414 -0.4500  0.2842 -0.7350
 1229WAT     H1 4206   3.387   2.201   4.485 -2.9157  0.1231  1.0722
 1229WAT     H2 4207   3.326   2.223   4.348 -0.4551  1.1089  0.0901
 1230WAT      O 4208   7.236   0.642   3.569  0.0641 -0.4487  0.1308
 1230WAT     H1 4209   7.278   0.650   3.483  0.3173  0.4014  0.3270
 1230WAT     H2 4210   7.235   0.548   3.586 -1.8563 -0.8467 -1.7106
 1231WAT      O 4211   5.263   4.191   2.896  0.2452 -0.3111 -0.3945
 1231WAT     H1 4212   5.281   4.270   2.947  0.0076 -1.4852  1.6400
 1231WAT     H2 4213   5.200   4.219   2.830  1.1647  1.4643 -0.5689
 1232WAT      O 4214   5.530   0.776   3.642 -0.4539 -0.0014  0.3090
 1232WAT     H1 4215   5.570   0.848   3.594 -1.9508  0.4965 -0.2370
 1232WAT     H2 4216   5.550   0.795   3.734  1.6673 -0.4943  0.0012
 1233WAT      O 4217   7.261   2.614   1.939  0.0027 -0.5143 -0.1422
 1233WAT     H1 4218   7.195   2.554   1.905  2.1590 -2.9564 -0.3059
 1233WAT     H2 4219   7.269   2.682   1.871 -1.7525 -0.5503 -0.4360
 1234WAT      O 4220   6.348   2.663   3.815  0.0935  0.0122 -0.0602
 1234WAT     H1 4221   6.401   2.653   3.894 -0.6749  1.7057  0.7173
 1234WAT     H2 4222   6.264   2.623   3.837  0.5527 -1.3816 -0.7807
 1235WAT      O 4223   5.178   4.361   1.436  0.0065  0.2376 -0.0143
 1235WAT     H1 4224   5.144   4.280   1.398  1.1560  0.0379 -0.6746
 1235WAT     H2 4225   5.169   4.426   1.366  2.9946 -0.3458 -1.0841
 1236WAT      O 4226   0.090   2.320   5.276  0.1783 -0.3228 -0.5136
 1236WAT     H1 4227   0.072   2.392   5.336 -2.0525 -3.1844  2.6494
 1236WAT     H2 4228   0.052   2.348   5.193 -2.4636  1.4056  1.1340
 1237WAT      O 4229   5.515   5.984   3.023  0.4834  0.3228  0.1302
 1237WAT     H1 4230   5.426   5.971   3.055  0.8622  0.6576  1.3418
 1237WAT     H2 4231   5.551   6.053   3.079  1.4431  0.3286 -0.4754
 1238WAT      O 4232   6.631   3.233   3.322  0.2325  0.1102  0.2738
 1238WAT     H1 4233   6.618   3.147   3.362  0.3915 -0.6178 -1.1681
 1238WAT     H2 4234   6.704   3.219   3.261 -0.8651  0.8113 -1.2541
 1239WAT      O 4235   0.642   3.169   2.329 -0.1230  0.6204 -0.4549
 1239WAT     H1 4236   0.613   3.080   2.309 -1.6280  1.0847 -0.5289
 1239WAT     H2 4237   0.704   3.159   2.401 -1.2744 -0.3999  0.4319
 1240WAT      O 4238   6.110   1.397   2.978 -0.0367  0.2381  0.1098
 1240WAT     H1 4239   6.124   1.447   3.058 -0.1431  1.8494 -0.8410
 1240WAT     H2 4240   6.123   1.306   3.004  1.9136  0.8576  1.5260
 1241WAT      O 4241   0.390   4.180   1.327 -0.0360  0.0837 -0.0970
 1241WAT     H1 4242   0.395   4.275   1.329  0.4877  0.0515  0.3914
 1241WAT     H2 4243   0.402   4.157   1.235  1.4831  0.4149 -0.0045
 1242WAT      O 4244   5.512   2.475   2.440  0.1357  0.1976  0.3460
 1242WAT     H1 4245   5.595   2.514   2.467  0.2042 -0.5973  1.3104
 1242WAT     H2 4246   5.447   2.542   2.460  0.1764 -0.3666  2.5857
 1243WAT      O 4247   7.272   2.470   3.372  0.3040  0.2787  0.3666
 1243WAT     H1 4248   7.243   2.556   3.340  0.1270  0.3306  0.6654
 1243WAT     H2 4249   7.219   2.407   3.324 -0.0186  0.3593  0.6153
 1244WAT      O 4250   6.529   2.372   0.925  0.0410 -0.2573 -0.4369
 1244WAT     H1 4251   6.529   2.324   1.007  0.0519  0.3480 -0.0802
 1244WAT     H2 4252   6.528   2.304   0.857 -0.5090 -0.7582  0.0623
 1245WAT      O 4253   0.887   3.022   2.558  0.1857  0.0964  0.3881
 1245WAT     H1 4254   0.885   2.989   2.468  1.4039  0.0455  0.3618
 1245WAT     H2 4255   0.916   3.113   2.549  1.0175 -0.1220  0.7759
 1246WAT      O 4256   0.175   2.483   3.093 -0.4869  0.3354  0.4830
 1246WAT     H1 4257   0.265   2.453   3.086 -0.5770 -0.1319  1.1602
 1246WAT     H2 4258   0.149   2.458   3.182 -1.1736  0.7638  0.4092
 1247WAT      O 4259   6.865   3.022   0.946  0.4311 -0.4720  0.3497
 1247WAT     H1 4260   6.773   3.023   0.920  0.1869 -1.0307  1.1378
 1247WAT     H2 4261   6.886   3.113   0.964 -0.0912 -0.3864  0.5408
 1248WAT      O 4262   7.372   1.855   1.549 -0.1762  0.3052 -0.1551
 1248WAT     H1 4263   7.395   1.844   1.456  2.8051  1.4445  0.3246
 1248WAT     H2 4264   7.417   1.782   1.593 -0.7556  0.3403  0.5027
 1249WAT      O 4265   0.270   3.019   1.749  0.9292 -0.0767 -0.1637
 1249WAT     H1 4266   0.264   2.939   1.801 -0.6424  0.0204 -0.1361
 1249WAT     H2 4267   0.186   3.063   1.763  1.6498  1.4618 -0.3852
 1250WAT      O 4268   6.821   2.274   2.373 -0.8360 -0.3302  0.0501
 1250WAT     H1 4269   6.767   2.199   2.397  0.9530 -2.1497 -1.2193
 1250WAT     H2 4270   6.762   2.335   2.329 -2.0393 -1.7735 -0.3824
 1251WAT      O 4271   3.432   5.489   1.122  0.5111  0.4721  0.1619
 1251WAT     H1 4272   3.338   5.472   1.136  0.6873 -0.9215 -0.1510
 1251WAT     H2 4273   3.472   5.478   1.208  0.5398 -0.1417  0.0742
 1252WAT      O 4274   5.899   3.516   2.868  0.1637  0.0596  0.4369
 1252WAT     H1 4275   5.964   3.581   2.839 -0.2626  0.2987 -0.0026
 1252WAT     H2 4276   5.951   3.439   2.892  0.5998  0.2102 -0.0100
 1253WAT      O 4277   5.907   3.658   3.422  0.1092  0.7371 -0.1034
 1253WAT     H1 4278   5.983   3.708   3.392  0.1391  2.0861  1.9968
 1253WAT     H2 4279   5.847   3.658   3.347  0.6691  2.8486 -0.6246
 1254WAT      O 4280   6.729   3.462   3.058  0.3301 -0.2713 -0.5223
 1254WAT     H1 4281   6.695   3.450   2.969  0.3914 -2.5302 -0.2937
 1254WAT     H2 4282   6.651   3.478   3.111  0.4012  2.5426 -1.1177
 1255WAT      O 4283   5.574   2.262   1.432  0.6738  0.3829 -0.3000
 1255WAT     H1 4284   5.587   2.357   1.425  0.8619  0.2598 -2.5676
 1255WAT     H2 4285   5.486   2.253   1.468 -0.2785  1.5077 -2.1492
 1256WAT      O 4286   4.659   0.768   2.345  0.0213  0.2069  0.2050
 1256WAT     H1 4287   4.651   0.831   2.273  1.4091  0.0332 -0.1310
 1256WAT     H2 4288   4.730   0.710   2.318  0.3659 -0.0437  1.5783
 1257WAT      O 4289   2.073   4.996   1.411 -0.4897 -0.0767 -0.1796
 1257WAT     H1 4290   2.058   5.088   1.391  0.9667  0.3422  0.5121
 1257WAT     H2 4291   2.161   4.978   1.377 -0.5815 -1.0892  0.0833
 1258WAT      O 4292   0.315   2.188   3.114 -0.2331  0.2149  0.3328
 1258WAT     H1 4293   0.353   2.133   3.182  0.6546 -1.5099 -1.4269
 1258WAT     H2 4294   0.361   2.272   3.123  1.1494 -0.5481  0.7692
 1259WAT      O 4295   5.003   1.794   2.794  0.5249 -0.8269 -0.0704
 1259WAT     H1 4296   4.986   1.813   2.702  1.4770 -2.1633 -0.5656
 1259WAT     H2 4297   4.987   1.700   2.802  2.1535 -1.0767  0.7008
 1260WAT      O 4298   7.139   2.113   0.259 -0.2349 -0.3457  0.4063
 1260WAT     H1 4299   7.185   2.155   0.186 -0.0957  1.3263  1.4048
 1260WAT     H2 4300   7.186   2.031   0.273  0.8563  0.1445 -0.2279
 1261WAT      O 4301   7.039   2.845   0.268  0.0293  0.0587 -0.5796
 1261WAT     H1 4302   7.039   2.749   0.274  2.6652  0.0092  0.2564
 1261WAT     H2 4303   7.006   2.874   0.353 -0.2452 -0.1245 -0.6236
 1262WAT      O 4304   1.401   2.672   2.025  0.3863  0.5219  0.6490
 1262WAT     H1 4305   1.313   2.636   2.024  0.5236  0.1710 -0.2285
 1262WAT     H2 4306   1.434   2.652   2.112  0.3215 -1.2117  0.3252
 1263WAT      O 4307   5.854   4.299   0.650  0.1606  0.4029  0.1859
 1263WAT     H1 4308   5.924   4.363   0.640  0.1292  0.1766 -1.8590
 1263WAT     H2 4309   5.807   4.326   0.729  2.4493  0.6221  1.5619
 1264WAT      O 4310   0.214   3.537   1.780  0.5910 -1.0779  0.2671
 1264WAT     H1 4311   0.235   3.450   1.814  0.8167 -0.2605  2.3824
 1264WAT     H2 4312   0.291   3.562   1.729  1.0357 -1.6349  0.6529
 1265WAT      O 4313   5.355   2.732   3.431 -0.1259 -0.5424 -0.7532
 1265WAT     H1 4314   5.368   2.643   3.399  2.5235 -0.6458  0.3698
 1265WAT     H2 4315   5.393   2.788   3.364  0.2365 -0.4083 -0.4387
 1266WAT      O 4316   6.597   0.364   2.883 -0.2791 -0.1184  0.1255
 1266WAT     H1 4317   6.558   0.320   2.958  1.3536 -0.9908  0.5170
 1266WAT     H2 4318   6.524   0.375   2.821 -0.8832 -3.0371  0.1761
 1267WAT      O 4319   0.010   3.129   0.854  0.4499 -0.3345  0.3054
 1267WAT     H1 4320   0.081   3.064   0.857 -0.5369 -1.4282  1.1053
 1267WAT     H2 4321  -0.028   3.126   0.942 -1.9776 -1.4139 -0.6903
 1268WAT      O 4322   3.921   2.092   1.135  0.0644  0.4701 -0.2398
 1268WAT     H1 4323   3.979   2.161   1.103 -0.8187  1.2059 -0.2857
 1268WAT     H2 4324   3.833   2.128   1.126 -0.5236 -1.1488 -1.4996
 1269WAT      O 4325   0.885   0.939   2.138  0.1109  0.1713 -0.0425
 1269WAT     H1 4326   0.810   0.886   2.111  1.0530 -0.8974 -0.6590
 1269WAT     H2 4327   0.955   0.914   2.077  1.6168 -0.5062  1.8793
 1270WAT      O 4328   4.640   3.555   2.413 -0.3606  0.2165  0.1580
 1270WAT     H1 4329   4.627   3.500   2.491 -0.1888 -0.4867 -0.2977
 1270WAT     H2 4330   4.689   3.631   2.445 -0.1957 -0.1161  0.7172
 1271WAT      O 4331   5.703   3.193   2.584  0.1668  0.6001 -0.2709
 1271WAT     H1 4332   5.791   3.230   2.573  0.1801 -0.0078 -2.8160
 1271WAT     H2 4333   5.718   3.112   2.633  1.7394 -1.5906 -3.9330
 1272WAT      O 4334   6.192   4.301   1.737  0.0779 -0.2943 -0.0188
 1272WAT     H1 4335   6.286   4.304   1.751  0.0761  0.0399 -0.0605
 1272WAT     H2 4336   6.171   4.208   1.727  0.3533 -0.3922  0.3222
 1273WAT      O 4337   6.133   1.622   3.577 -0.3001  0.2901 -0.3006
 1273WAT     H1 4338   6.225   1.638   3.557 -0.3861  0.2256 -0.7766
 1273WAT     H2 4339   6.114   1.539   3.533 -1.0778  1.2424 -1.8689
 1274WAT      O 4340   0.276   3.480   2.547 -0.4088 -0.4599 -0.0162
 1274WAT     H1 4341   0.257   3.544   2.478  0.1911 -0.9899 -0.6923
 1274WAT     H2 4342   0.360   3.442   2.521 -0.0921 -0.5586  1.1027
 1275WAT      O 4343   0.798   3.696   3.029 -0.7537  0.1753 -0.0573
 1275WAT     H1 4344   0.853   3.690   3.107 -1.7349 -0.8864  0.5873
 1275WAT     H2 4345   0.847   3.753   2.970  1.4693 -1.3922  0.1185
 1276WAT      O 4346   7.000   5.408   1.987 -0.8741  0.3311  0.2559
 1276WAT     H1 4347   6.999   5.313   1.976  1.3537  0.2041  0.7986
 1276WAT     H2 4348   6.907   5.433   1.983 -1.4966 -1.8233 -0.0568
 1277WAT      O 4349   6.957   3.840   2.074 -0.1113 -0.2727  0.4893
 1277WAT     H1 4350   6.902   3.906   2.031 -0.4384 -0.6195  0.3631
 1277WAT     H2 4351   7.024   3.818   2.009  0.1426  0.1108  0.6217
 1278WAT      O 4352   5.145   3.112   5.296 -0.1676  0.1793  0.0925
 1278WAT     H1 4353   5.193   3.029   5.294  0.3882  0.4666  0.9939
 1278WAT     H2 4354   5.179   3.157   5.373  1.2447  2.2576 -1.6077
 1279WAT      O 4355   6.018   3.985   5.621  0.1549  0.0819  0.5106
 1279WAT     H1 4356   6.011   4.041   5.698  0.5526  0.7640  0.0536
 1279WAT     H2 4357   6.054   4.041   5.553  3.5688 -1.4781  0.8470
 1280WAT      O 4358   7.406   3.774   3.837 -0.0078 -0.3958 -0.1755
 1280WAT     H1 4359   7.383   3.858   3.797  1.0166  0.0488  0.1406
 1280WAT     H2 4360   7.436   3.720   3.765 -2.8825 -1.3667 -0.7946
 1281WAT      O 4361   7.248   3.166   1.154  0.0473  0.2534  1.0582
 1281WAT     H1 4362   7.171   3.155   1.210 -0.6630  0.9381  0.2411
 1281WAT     H2 4363   7.321   3.170   1.215 -0.5158 -0.7494  1.8319
 1282WAT      O 4364   1.374   4.604   5.488  0.0232 -0.1013  0.1663
 1282WAT     H1 4365   1.324   4.634   5.412  0.6181  0.6903  0.0754
 1282WAT     H2 4366   1.461   4.644   5.477  0.4776 -0.9131  0.6621
 1283WAT      O 4367   5.585   1.771   2.956  0.2368  0.0014 -0.2767
 1283WAT     H1 4368   5.502   1.755   2.913 -0.2234  0.3477  0.4631
 1283WAT     H2 4369   5.562   1.792   3.047  1.1806 -0.7485  0.1610
 1284WAT      O 4370   6.460   2.447   0.522  0.5869 -0.4466  0.1131
 1284WAT     H1 4371   6.520   2.416   0.454 -0.1881 -2.1715  0.1451
 1284WAT     H2 4372   6.397   2.376   0.531 -0.8272  0.8574  0.8440
 1285WAT      O 4373   6.814   1.443   2.091  0.7110  0.3183 -0.1367
 1285WAT     H1 4374   6.881   1.435   2.023 -0.5849  0.1234 -1.4356
 1285WAT     H2 4375   6.835   1.372   2.153  2.9683  1.6048  0.6906
 1286WAT      O 4376   4.027   2.160   5.429  0.6823  0.1613  0.2911
 1286WAT     H1 4377   3.934   2.162   5.451  0.5658  0.5725 -0.2164
 1286WAT     H2 4378   4.030   2.182   5.336  1.2785  0.0302  0.2732
 1287WAT      O 4379   0.239   3.837   3.294  0.6556  0.7832  0.0976
 1287WAT     H1 4380   0.306   3.805   3.355 -0.5713  1.3599  1.8215
 1287WAT     H2 4381   0.212   3.759   3.245  0.9921  0.1078  0.9591
 1288WAT      O 4382   7.236   1.188   2.567  0.4668  0.0029  0.3076
 1288WAT     H1 4383   7.324   1.224   2.560  0.2688  0.6804  1.1538
 1288WAT     H2 4384   7.178   1.261   2.545  0.1020 -0.4150 -0.1607
 1289WAT      O 4385   6.898   4.710   1.563  0.1670  0.5810 -0.9276
 1289WAT     H1 4386   6.926   4.787   1.613 -1.6134  1.8878 -1.8074
 1289WAT     H2 4387   6.809   4.692   1.595  0.6328 -1.2814 -0.5948
 1290WAT      O 4388   6.881   1.952   2.736 -0.3491  0.2061  0.5939
 1290WAT     H1 4389   6.816   1.902   2.785 -1.1002  0.5836  0.0094
 1290WAT     H2 4390   6.884   2.037   2.780  0.8815 -0.3146  1.5499
 1291WAT      O 4391   6.525   2.714   3.030 -0.2772 -0.2112 -0.1308
 1291WAT     H1 4392   6.506   2.741   3.120 -2.2854 -0.3666 -0.4737
 1291WAT     H2 4393   6.457   2.651   3.009  0.8351 -1.0469 -1.4055
 1292WAT      O 4394   6.850   1.792   3.029 -0.6725  0.0550 -0.5359
 1292WAT     H1 4395   6.926   1.778   3.086 -1.6928  0.4297  0.9558
 1292WAT     H2 4396   6.775   1.766   3.081 -1.6077 -0.3159 -1.9912
 1293WAT      O 4397   0.983   2.248   2.252  0.1891  0.4176 -0.2132
 1293WAT     H1 4398   0.999   2.177   2.190 -2.8231  0.6196 -1.3599
 1293WAT     H2 4399   0.999   2.328   2.201 -2.4155  0.5860 -0.9164
 1294WAT      O 4400   0.035   3.718   0.185  0.1922 -0.3995 -0.1873
 1294WAT     H1 4401  -0.008   3.684   0.264 -0.8100 -1.5279 -1.1721
 1294WAT     H2 4402  -0.025   3.785   0.153  0.0677 -0.6922 -0.5684
 1295WAT      O 4403   5.214   3.427   1.896 -0.2532  0.1578  0.0302
 1295WAT     H1 4404   5.169   3.414   1.813  0.0555  1.1691 -0.3084
 1295WAT     H2 4405   5.183   3.511   1.927  2.1002  1.3844 -0.7097
 1296WAT      O 4406   0.141   5.683   3.101  0.2191  0.0733 -0.0366
 1296WAT     H1 4407   0.092   5.642   3.030  0.5449 -2.1827  0.9685
 1296WAT     H2 4408   0.124   5.628   3.178  0.1501  2.2206  1.6034
 1297WAT      O 4409   6.161   1.833   3.773  0.9950  0.9507 -0.3684
 1297WAT     H1 4410   6.126   1.772   3.708  0.5479 -0.3190  1.0019
 1297WAT     H2 4411   6.087   1.889   3.797  0.7358  0.3852  0.1753
 1298WAT      O 4412   0.300   2.120   1.376 -0.4886  0.3220  0.3153
 1298WAT     H1 4413   0.204   2.123   1.383 -0.5902  0.5394 -0.8628
 1298WAT     H2 4414   0.331   2.136   1.465 -1.5405  1.7283  0.4722
 1299WAT      O 4415   6.128   1.966   2.419  0.4504  0.4665  0.4003
 1299WAT     H1 4416   6.123   2.016   2.338  1.2804  0.9839  0.6596
 1299WAT     H2 4417   6.052   1.909   2.417  0.6035  0.2991 -0.8601
 1300WAT      O 4418   2.024   0.270   1.232  0.0166  0.3372  0.4582
 1300WAT     H1 4419   1.992   0.180   1.224 -1.6389  0.9831 -0.6681
 1300WAT     H2 4420   2.115   0.260   1.263  0.6704 -1.8140 -1.8308
 1301WAT      O 4421   0.071   4.451   1.524  0.7210  0.2509  0.2075
 1301WAT     H1 4422   0.049   4.424   1.435 -1.9994 -2.5680  1.5216
 1301WAT     H2 4423  -0.014   4.473   1.564  1.9056  1.9009  2.0068
 1302WAT      O 4424   6.796   3.971   1.429  0.4550 -0.1073 -0.2816
 1302WAT     H1 4425   6.841   4.049   1.463  0.3153  0.2567 -0.9242
 1302WAT     H2 4426   6.813   3.904   1.495 -0.6786  0.8513  1.0756
 1303WAT      O 4427   6.294   2.515   1.705 -0.0656 -0.4434 -0.0539
 1303WAT     H1 4428   6.290   2.421   1.687 -2.0061 -0.3929 -0.0828
 1303WAT     H2 4429   6.203   2.542   1.712  0.4692  1.3020  0.7540
 1304WAT      O 4430   5.329   2.452   2.724  0.0031 -0.1692 -0.0328
 1304WAT     H1 4431   5.292   2.424   2.641  0.9615  0.1122 -0.5814
 1304WAT     H2 4432   5.395   2.385   2.745 -0.1016 -0.1394  0.4019
 1305WAT      O 4433   5.007   1.875   1.681  0.6009  1.0003  0.1795
 1305WAT     H1 4434   5.034   1.830   1.601  2.2637 -2.5323  2.4931
 1305WAT     H2 4435   5.080   1.932   1.703  1.2434  0.0782  0.4646
 1306WAT      O 4436   7.195   4.992   2.077  0.2126 -0.2343 -0.4342
 1306WAT     H1 4437   7.261   5.001   2.146  0.1967  1.3711 -0.5854
 1306WAT     H2 4438   7.116   4.965   2.123 -0.2053  2.2888  0.4619
 1307WAT      O 4439   5.299   1.354   1.572 -0.3653 -0.3221  0.4047
 1307WAT     H1 4440   5.220   1.404   1.550 -0.4739 -0.6363  0.0654
 1307WAT     H2 4441   5.280   1.316   1.658 -1.9984 -3.1419 -1.0169
 1308WAT      O 4442   5.138   2.792   0.351 -0.0377 -0.3625 -0.1023
 1308WAT     H1 4443   5.218   2.826   0.312 -0.3166  1.6273  0.9034
 1308WAT     H2 4444   5.094   2.745   0.280 -0.2448  2.5385 -2.0515
 1309WAT      O 4445   6.915   2.754   1.585  0.0514 -0.6690  0.3483
 1309WAT     H1 4446   6.924   2.675   1.531  0.6300  0.8597 -1.9417
 1309WAT     H2 4447   6.821   2.773   1.583  0.1210 -0.3823 -0.5185
 1310WAT      O 4448   5.521   1.487   1.959  0.4560  0.3465 -0.4311
 1310WAT     H1 4449   5.588   1.424   1.933 -0.6058 -0.7289 -0.6825
 1310WAT     H2 4450   5.473   1.443   2.029  0.4942  1.4135  0.2889
 1311WAT      O 4451   5.515   2.243   1.928 -0.2563  0.3959 -0.2014
 1311WAT     H1 4452   5.567   2.324   1.934 -1.0484  1.0678 -1.7947
 1311WAT     H2 4453   5.443   2.256   1.989 -0.1347  0.6946 -0.1189
 1312WAT      O 4454   6.903   3.222   2.052 -0.0070 -0.1925  0.3044
 1312WAT     H1 4455   6.849   3.143   2.047 -1.5059  0.7632  0.5096
 1312WAT     H2 4456   6.930   3.238   1.961  0.5498 -1.0690  0.2995
 1313WAT      O 4457   6.669   4.062   2.304  0.3242 -0.2514  0.4709
 1313WAT     H1 4458   6.709   4.011   2.374 -0.6762  0.5648  1.6776
 1313WAT     H2 4459   6.577   4.035   2.304 -0.0585  0.9978  0.6511
 1314WAT      O 4460   5.598   1.987   1.352 -0.2420 -0.0469 -0.4390
 1314WAT     H1 4461   5.595   2.082   1.366  0.3319  0.1882 -1.7463
 1314WAT     H2 4462   5.680   1.959   1.394  1.8189  0.7525 -3.5576
 1315WAT      O 4463   4.127   2.367   1.801 -0.2554  0.4033 -0.0318
 1315WAT     H1 4464   4.102   2.300   1.738 -0.2097  0.2016  0.1613
 1315WAT     H2 4465   4.077   2.444   1.775  1.8784  1.2157 -2.0577
 1316WAT      O 4466   0.289   2.017   1.878  0.2910  0.6416 -0.0062
 1316WAT     H1 4467   0.361   1.997   1.937 -0.0561 -0.8248 -0.0554
 1316WAT     H2 4468   0.232   2.075   1.928  0.0184 -0.5578  1.1132
 1317WAT      O 4469   0.655   2.599   1.687  0.6841  0.0971  0.4257
 1317WAT     H1 4470   0.677   2.614   1.779  0.0120  1.5708  0.3654
 1317WAT     H2 4471   0.629   2.685   1.653  0.4504 -0.5060 -1.0184
 1318WAT      O 4472   0.336   3.190   2.102  0.2009  0.2045  0.5229
 1318WAT     H1 4473   0.336   3.280   2.137 -0.2492 -0.0620  1.2294
 1318WAT     H2 4474   0.276   3.143   2.159 -1.8387  0.1157 -1.5759
 1319WAT      O 4475   1.772   3.577   5.152 -0.7272  0.3669  0.0548
 1319WAT     H1 4476   1.708   3.520   5.109 -0.3254 -0.7811  0.9265
 1319WAT     H2 4477   1.762   3.558   5.245  0.8440  0.2021  0.2086
 1320WAT      O 4478   7.213   1.797   3.463  0.0039 -0.0045 -0.3225
 1320WAT     H1 4479   7.219   1.769   3.555  0.8501 -0.3061 -0.4586
 1320WAT     H2 4480   7.276   1.741   3.418  1.0462  1.4693 -0.7646
 1321WAT      O 4481   6.607   1.856   3.319 -0.4516  0.3714  0.1569
 1321WAT     H1 4482   6.681   1.843   3.378  0.0849 -1.7474 -0.8728
 1321WAT     H2 4483   6.610   1.949   3.297  0.3959  0.8286  2.0310
 1322WAT      O 4484   6.931   2.078   2.183 -0.3549  0.3014 -0.1910
 1322WAT     H1 4485   6.920   2.050   2.092 -2.0687  1.5167 -0.4125
 1322WAT     H2 4486   6.913   2.172   2.182  0.0025  0.4169  1.3492
 1323WAT      O 4487   6.348   3.500   2.211  0.3554 -0.1014  0.4692
 1323WAT     H1 4488   6.415   3.518   2.146  0.3993  0.4956  0.6714
 1323WAT     H2 4489   6.388   3.524   2.295  0.2528 -0.7280  0.7021
 1324WAT      O 4490   6.270   1.887   4.961 -0.0295  0.4049 -0.0219
 1324WAT     H1 4491   6.178   1.865   4.948  0.0813 -1.0243  1.2895
 1324WAT     H2 4492   6.311   1.805   4.988  1.3263  1.3158  0.8574
 1325WAT      O 4493   6.711   0.943   2.298 -0.0449 -0.4469 -0.2581
 1325WAT     H1 4494   6.726   0.987   2.381  1.0921 -0.0713 -0.6522
 1325WAT     H2 4495   6.771   0.869   2.298 -0.1188 -0.5154 -0.6987
 1326WAT      O 4496   5.762   2.581   2.473  0.2453 -0.1852  0.1412
 1326WAT     H1 4497   5.746   2.579   2.567  1.6026 -0.3946  0.3848
 1326WAT     H2 4498   5.777   2.673   2.453 -0.3119 -0.1056  0.0711
 1327WAT      O 4499   7.235   2.211   1.638  0.1180  0.6873 -0.8762
 1327WAT     H1 4500   7.151   2.203   1.592  0.4508 -2.0191 -1.1493
 1327WAT     H2 4501   7.216   2.183   1.728  0.6254  0.6270 -0.7871
 1328WAT      O 4502   6.560   1.560   4.841  0.2222 -0.1112  0.5124
 1328WAT     H1 4503   6.500   1.487   4.853 -1.6737  1.5209  1.4435
 1328WAT     H2 4504   6.526   1.607   4.765  1.5452 -0.2773 -0.2095
 1329WAT      O 4505   0.923   3.800   1.508 -0.2015 -0.2318  0.0113
 1329WAT     H1 4506   0.988   3.870   1.514  1.0198 -1.4360  2.0418
 1329WAT     H2 4507   0.844   3.836   1.549  0.1918  0.2182  0.3871
 1330WAT      O 4508   0.938   2.663   3.299 -0.3884 -0.2317  0.1885
 1330WAT     H1 4509   0.993   2.741   3.290 -1.0946  0.1586 -0.9108
 1330WAT     H2 4510   0.866   2.691   3.355 -0.5401 -0.1312 -0.0507
 1331WAT      O 4511   5.312   1.817   0.922 -0.2204  0.0583  0.0933
 1331WAT     H1 4512   5.379   1.816   0.990  0.4847 -1.4093 -0.5567
 1331WAT     H2 4513   5.303   1.909   0.896 -0.2033  0.5766  1.8393
 1332WAT      O 4514   5.656   3.925   3.859  0.5561  0.0335 -0.5281
 1332WAT     H1 4515   5.743   3.888   3.846  1.7182  2.5646 -0.6366
 1332WAT     H2 4516   5.611   3.863   3.916  2.0793 -1.8117 -1.2502
 1333WAT      O 4517   7.108   1.388   2.920 -0.0305  0.4556  0.5362
 1333WAT     H1 4518   7.117   1.300   2.885  1.9444  0.8265  0.0083
 1333WAT     H2 4519   7.019   1.415   2.896  0.4402 -0.1798 -2.1626
 1334WAT      O 4520   6.578   0.145   1.930  0.3157 -0.5032  0.3648
 1334WAT     H1 4521   6.647   0.187   1.982 -0.7054  2.3864 -0.4358
 1334WAT     H2 4522   6.524   0.218   1.899 -0.6331 -2.3074 -2.5816
 1335WAT      O 4523   4.256   2.706   0.541 -0.0075 -0.5418 -0.0132
 1335WAT     H1 4524   4.318   2.717   0.469  1.4259  2.1174  1.4929
 1335WAT     H2 4525   4.303   2.738   0.618 -2.9024  0.5876  1.3976
 1336WAT      O 4526   3.730   0.486   1.357 -0.5937 -0.6826 -0.4359
 1336WAT     H1 4527   3.746   0.471   1.264 -1.0639 -1.2094 -0.4376
 1336WAT     H2 4528   3.649   0.537   1.359 -0.9334 -1.2119 -0.3031
 1337WAT      O 4529   0.124   2.277   1.965  0.3702  0.1123 -0.4298
 1337WAT     H1 4530   0.081   2.345   2.017  0.6486  0.0601 -0.1338
 1337WAT     H2 4531   0.102   2.300   1.874 -0.6696 -0.1755 -0.2648
 1338WAT      O 4532   6.681   1.198   3.858  0.2282  0.5231 -0.3182
 1338WAT     H1 4533   6.763   1.247   3.864 -0.0605  0.9663  0.0441
 1338WAT     H2 4534   6.662   1.170   3.947 -0.6682  1.5106 -0.1797
 1339WAT      O 4535   0.188   2.592   1.668 -0.2022 -0.5265 -0.1730
 1339WAT     H1 4536   0.270   2.592   1.618 -0.2788 -1.0039 -0.3016
 1339WAT     H2 4537   0.121   2.613   1.603 -0.3836 -1.8138 -0.4166
 1340WAT      O 4538   6.071   3.193   3.657  0.4297 -0.4968 -0.0197
 1340WAT     H1 4539   6.087   3.104   3.628  0.7181 -0.2937 -0.4882
 1340WAT     H2 4540   5.997   3.223   3.604  1.9394  0.4148 -1.7191
 1341WAT      O 4541   4.901   2.388   1.814  0.4616  0.4864 -0.3331
 1341WAT     H1 4542   4.895   2.296   1.841 -0.8998  0.3470 -1.0467
 1341WAT     H2 4543   4.994   2.402   1.799  0.7633 -0.6024  0.3658
 1342WAT      O 4544   5.461   5.813   2.450  0.6393 -0.4180 -0.4957
 1342WAT     H1 4545   5.496   5.849   2.532  0.7904  0.6152 -0.9925
 1342WAT     H2 4546   5.536   5.813   2.391  0.1302  0.5430 -1.1674
 1343WAT      O 4547   4.570   5.132   3.761 -0.3857  0.8259 -1.0448
 1343WAT     H1 4548   4.598   5.221   3.781 -0.5394  0.7679 -0.5651
 1343WAT     H2 4549   4.474   5.136   3.767 -0.3361  0.2499  0.6193
 1344WAT      O 4550   4.779   6.056   0.901  0.1279  0.7679  0.0556
 1344WAT     H1 4551   4.798   6.141   0.940 -0.2142 -0.0796  2.1964
 1344WAT     H2 4552   4.771   5.997   0.976 -2.0064 -0.6844 -1.2114
 1345WAT      O 4553   0.002   3.557   2.289  0.3208  0.7674  0.2485
 1345WAT     H1 4554   0.018   3.466   2.261 -1.1991  0.4598  0.2988
 1345WAT     H2 4555  -0.065   3.589   2.228 -0.1185  1.4181  1.0635
 1346WAT      O 4556   7.028   3.496   2.672  0.1842  0.8883 -0.2464
 1346WAT     H1 4557   7.076   3.450   2.741 -0.7793  2.0476  1.2916
 1346WAT     H2 4558   6.948   3.446   2.661 -0.1979  1.3531  0.3594
 1347WAT      O 4559   5.982   1.483   3.949 -0.1813  0.1916  0.4143
 1347WAT     H1 4560   6.063   1.452   3.990  0.0324 -0.0482 -0.1886
 1347WAT     H2 4561   5.913   1.454   4.009  0.2246  1.2192  1.4344
 1348WAT      O 4562   5.689   0.816   4.162 -0.8712 -0.1058 -0.8899
 1348WAT     H1 4563   5.769   0.868   4.170 -1.0365  0.3669 -2.1219
 1348WAT     H2 4564   5.658   0.805   4.252 -0.4763  1.3778 -0.5467
 1349WAT      O 4565   4.847   3.591   1.039 -0.1543 -0.0066 -0.1691
 1349WAT     H1 4566   4.915   3.589   0.971 -0.5350  0.6937 -0.5883
 1349WAT     H2 4567   4.895   3.594   1.121  0.3759  1.6343 -0.4875
 1350WAT      O 4568   4.996   2.031   0.650 -0.5411 -0.2813 -0.0600
 1350WAT     H1 4569   4.924   2.093   0.654  1.5894  2.2901  2.6536
 1350WAT     H2 4570   5.038   2.048   0.566 -1.2696  0.3481 -0.3060
 1351WAT      O 4571   4.930   4.542   4.034  0.4303 -0.0662 -0.0587
 1351WAT     H1 4572   4.969   4.600   4.099  0.3546 -0.3539  0.2445
 1351WAT     H2 4573   4.965   4.573   3.950 -0.3117  0.9867  0.0027
 1352WAT      O 4574   6.500   2.297   1.177 -0.0242  0.1523 -0.6511
 1352WAT     H1 4575   6.510   2.327   1.268  0.9729 -0.5185 -0.5117
 1352WAT     H2 4576   6.442   2.222   1.183 -1.0293  0.8980 -0.7587
 1353WAT      O 4577   0.565   2.928   5.494 -0.3289 -0.5623 -0.8764
 1353WAT     H1 4578   0.618   2.953   5.569  0.1749 -1.2074 -1.0039
 1353WAT     H2 4579   0.625   2.934   5.420  0.1862 -3.2670 -0.7638
 1354WAT      O 4580   5.097   0.749   1.599  0.0651 -0.3188 -0.4493
 1354WAT     H1 4581   5.083   0.681   1.533  0.3142 -1.5888  0.7504
 1354WAT     H2 4582   5.168   0.715   1.654 -3.0501 -1.5575  3.2267
 1355WAT      O 4583   3.245   3.234   0.214  0.2530 -0.5234 -1.0111
 1355WAT     H1 4584   3.273   3.152   0.254 -1.2097 -0.8771 -0.6619
 1355WAT     H2 4585   3.253   3.218   0.120 -0.2792 -1.1613 -0.9513
 1356WAT      O 4586   6.027   2.599   1.742 -0.1558 -0.0956 -0.3929
 1356WAT     H1 4587   5.970   2.541   1.692 -0.1877  0.1653 -0.6595
 1356WAT     H2 4588   6.000   2.687   1.716 -0.3952  0.0488  0.3193
 1357WAT      O 4589   4.639   1.371   5.824 -0.1955 -0.0502  0.6038
 1357WAT     H1 4590   4.704   1.366   5.894 -1.2180 -1.0771  1.5138
 1357WAT     H2 4591   4.600   1.458   5.834 -2.3539 -1.1795  3.2462
 1358WAT      O 4592   1.020   2.915   5.097 -0.0016  0.3748 -0.5682
 1358WAT     H1 4593   0.983   2.829   5.117  1.6257 -0.4755 -1.0277
 1358WAT     H2 4594   0.971   2.945   5.020  0.6268 -0.9835 -1.5290
 1359WAT      O 4595   5.897   1.946   4.501 -0.3333 -0.3814 -0.0648
 1359WAT     H1 4596   5.815   1.976   4.461 -0.7035 -1.2027  0.0469
 1359WAT     H2 4597   5.885   1.962   4.594 -0.4554 -0.6943 -0.0257
 1360WAT      O 4598   3.764   1.715   0.785  0.3143  0.1145  0.1580
 1360WAT     H1 4599   3.774   1.632   0.738  0.1538 -0.3927  1.0094
 1360WAT     H2 4600   3.754   1.690   0.877 -0.8382  1.0108  0.3007
 1361WAT      O 4601   7.050   2.501   1.810  0.7074 -0.0397 -0.2630
 1361WAT     H1 4602   7.013   2.433   1.755  0.8316  1.0517 -1.7695
 1361WAT     H2 4603   6.999   2.499   1.890  0.3246 -1.4862 -0.5280
 1362WAT      O 4604   5.718   2.637   4.757 -0.4628 -0.1929 -0.9747
 1362WAT     H1 4605   5.735   2.546   4.783 -1.6203 -0.0881  0.2488
 1362WAT     H2 4606   5.786   2.688   4.801 -0.6582 -0.3343 -0.4981
 1363WAT      O 4607   0.414   1.436   1.931  0.3509 -0.2433  0.1617
 1363WAT     H1 4608   0.482   1.496   1.901 -0.0772  0.6380  0.9190
 1363WAT     H2 4609   0.443   1.407   2.017 -0.0172 -0.2046  0.3012
 1364WAT      O 4610   6.786   3.631   2.058  0.0294  0.0884  0.4007
 1364WAT     H1 4611   6.802   3.598   2.146  1.3959 -1.5003 -0.3804
 1364WAT     H2 4612   6.837   3.712   2.053 -1.0158  0.8437  1.4143
 1365WAT      O 4613   6.955   3.577   1.826  0.0927 -0.0665  0.1019
 1365WAT     H1 4614   6.942   3.558   1.733 -0.5520  1.4493 -0.1408
 1365WAT     H2 4615   6.871   3.555   1.866  0.0604  0.1633  0.1634
 1366WAT      O 4616   5.480   0.664   1.827 -0.0065  0.0833 -0.0295
 1366WAT     H1 4617   5.439   0.749   1.815 -1.7629 -0.7291 -0.1415
 1366WAT     H2 4618   5.454   0.637   1.915  0.9213 -0.1579  0.1851
 1367WAT      O 4619   5.311   1.634   1.485  0.1171 -0.2881  0.0633
 1367WAT     H1 4620   5.368   1.591   1.421 -0.3280 -2.2196  0.8927
 1367WAT     H2 4621   5.369   1.694   1.532  1.1724 -1.2112 -0.0166
 1368WAT      O 4622   6.338   4.329   1.481 -0.1924 -0.5764  0.1101
 1368WAT     H1 4623   6.286   4.388   1.536  0.4490 -0.1774  0.3004
 1368WAT     H2 4624   6.405   4.295   1.540  0.2151 -0.5109 -0.3100
 1369WAT      O 4625   0.789   3.104   0.357 -0.4015  0.0940  0.2430
 1369WAT     H1 4626   0.746   3.189   0.363  0.7964  0.8468 -1.2005
 1369WAT     H2 4627   0.843   3.098   0.435 -1.4229  0.0757  0.9764
 1370WAT      O 4628   0.030   3.989   1.397 -0.2527  0.9951 -0.9288
 1370WAT     H1 4629   0.041   4.039   1.477  0.5947 -0.3443 -0.1638
 1370WAT     H2 4630   0.082   3.910   1.411  0.3340  0.9601 -3.0053
 1371WAT      O 4631   4.520   2.591   4.023  0.2411 -0.8315 -0.0452
 1371WAT     H1 4632   4.477   2.534   4.086 -1.1192  1.1822  0.9537
 1371WAT     H2 4633   4.449   2.625   3.968  1.1309 -0.7803 -1.2132
 1372WAT      O 4634   6.678   4.164   0.837 -0.2552 -0.1735  0.0344
 1372WAT     H1 4635   6.749   4.206   0.789  0.3769 -0.7342  0.4537
 1372WAT     H2 4636   6.601   4.216   0.816  0.4170  0.9091  0.1657
 1373WAT      O 4637   3.504   3.678   1.704  0.5612  0.4468  0.2375
 1373WAT     H1 4638   3.597   3.679   1.728  0.9182  1.0961 -1.0407
 1373WAT     H2 4639   3.503   3.648   1.613 -0.5738 -0.3975  0.5102
 1374WAT      O 4640   6.160   2.303   1.380  0.3406  0.7276  0.3293
 1374WAT     H1 4641   6.161   2.290   1.475 -1.2907 -0.4332  0.2258
 1374WAT     H2 4642   6.105   2.380   1.367  1.9499  1.9334  0.3833
 1375WAT      O 4643   0.967   2.100   2.014  0.1321  0.0054 -0.7141
 1375WAT     H1 4644   0.892   2.052   1.979 -1.1772  1.3773  0.0859
 1375WAT     H2 4645   1.039   2.037   2.011 -1.2206 -1.6090 -0.7778
 1376WAT      O 4646   6.662   1.799   2.212  0.1542 -0.3448 -0.8360
 1376WAT     H1 4647   6.576   1.841   2.207  0.7971  1.1433 -0.0878
 1376WAT     H2 4648   6.660   1.750   2.294  0.1932  0.0847 -0.5796
 1377WAT      O 4649   4.173   0.771   0.634  0.2524  0.2924  0.0098
 1377WAT     H1 4650   4.093   0.725   0.661  0.0620  0.8293  0.3902
 1377WAT     H2 4651   4.149   0.864   0.639  1.0353  0.4768  0.5809
 1378WAT      O 4652   6.442   2.208   1.855 -0.1609 -0.2118  0.2967
 1378WAT     H1 4653   6.454   2.121   1.816 -3.4918 -0.6018 -0.1961
 1378WAT     H2 4654   6.406   2.189   1.942 -0.5871  0.6522  0.3131
 1379WAT      O 4655   2.950   0.403   1.182 -0.1605 -0.1994 -0.1351
 1379WAT     H1 4656   3.011   0.462   1.138 -0.0768 -0.1157  0.0905
 1379WAT     H2 4657   2.972   0.316   1.147  0.3306 -0.2201  0.2110
 1380WAT      O 4658   0.235   1.755   2.469  0.6043 -0.3229 -0.1070
 1380WAT     H1 4659   0.143   1.740   2.492  0.6703  1.1489  1.3456
 1380WAT     H2 4660   0.285   1.708   2.536  0.8469  1.2406  0.8599
 1381WAT      O 4661   4.103   1.403   1.867  0.0341  0.4655  0.3525
 1381WAT     H1 4662   4.097   1.329   1.807 -0.0122  0.9640 -0.2655
 1381WAT     H2 4663   4.149   1.368   1.944  0.2715 -0.1265 -0.0536
 1382WAT      O 4664   0.351   2.896   4.371  0.0344 -0.2774 -0.0050
 1382WAT     H1 4665   0.345   2.866   4.280  0.8162 -1.1621  0.2212
 1382WAT     H2 4666   0.393   2.982   4.365 -1.3792  0.3996 -0.5891
 1383WAT      O 4667   1.694   1.967   0.589 -0.3219  0.2658  0.2427
 1383WAT     H1 4668   1.660   2.029   0.654 -0.1072 -0.0185  0.6283
 1383WAT     H2 4669   1.633   1.975   0.516 -2.6874 -1.8766  1.7768
 1384WAT      O 4670   6.678   2.644   1.921 -0.2553  0.2513 -0.3741
 1384WAT     H1 4671   6.658   2.550   1.917  1.4173 -0.1198 -0.8304
 1384WAT     H2 4672   6.719   2.663   1.837 -0.7534  1.4570 -0.3658
 1385WAT      O 4673   6.539   2.689   0.664 -0.4834 -0.0769 -0.8871
 1385WAT     H1 4674   6.510   2.608   0.621  1.6030 -0.1663 -2.2511
 1385WAT     H2 4675   6.632   2.676   0.681 -0.3345  1.6328 -0.1242
 1386WAT      O 4676   3.348   0.835   2.620 -0.2191 -0.2035  0.4321
 1386WAT     H1 4677   3.387   0.754   2.652  4.0052  1.6086  0.4477
 1386WAT     H2 4678   3.336   0.820   2.526  0.7125 -0.8260  0.4013
 1387WAT      O 4679   5.337   2.553   1.999 -0.4416 -0.1052  0.3566
 1387WAT     H1 4680   5.360   2.493   2.070 -1.2212  0.9544  1.5512
 1387WAT     H2 4681   5.354   2.640   2.035  0.1841  0.4286 -1.1595
 1388WAT      O 4682   1.705   2.211   0.200  0.1062 -0.3009 -0.5168
 1388WAT     H1 4683   1.711   2.303   0.223  0.6566 -0.4491 -0.0308
 1388WAT     H2 4684   1.704   2.210   0.104  2.3812  0.1066 -0.5883
 1389WAT      O 4685   6.532   4.268   1.992 -0.2813 -0.2185 -0.4876
 1389WAT     H1 4686   6.559   4.307   2.075 -0.9339  0.6143 -0.6637
 1389WAT     H2 4687   6.452   4.219   2.013 -0.1686 -0.4236 -0.5288
 1390WAT      O 4688   7.096   2.476   4.510 -0.0465  0.1087 -0.5039
 1390WAT     H1 4689   7.065   2.533   4.441 -0.9783 -1.5421 -1.5004
 1390WAT     H2 4690   7.079   2.524   4.591  1.4460  2.2481 -1.3690
 1391WAT      O 4691   5.482   1.838   1.573 -0.7860 -1.0655  0.1343
 1391WAT     H1 4692   5.481   1.918   1.521 -2.1140 -0.6299  0.7961
 1391WAT     H2 4693   5.575   1.817   1.582 -0.3834  0.6275  0.3015
 1392WAT      O 4694   0.016   2.120   1.449  0.8352  0.2209  0.0216
 1392WAT     H1 4695   0.024   2.044   1.507 -0.2417  0.7129  0.8606
 1392WAT     H2 4696  -0.044   2.179   1.496 -0.7739  0.2706 -1.9915
 1393WAT      O 4697   6.522   3.365   1.876  0.0642  0.0390 -0.3582
 1393WAT     H1 4698   6.440   3.373   1.827  0.7574  0.6872 -1.4393
 1393WAT     H2 4699   6.549   3.274   1.862  0.8654  0.5194 -2.2182
 1394WAT      O 4700   0.031   3.865   0.950 -0.4859 -0.1587  0.3071
 1394WAT     H1 4701   0.115   3.874   0.996  1.4987  1.7422 -3.2930
 1394WAT     H2 4702   0.021   3.771   0.938  1.2388 -0.4280  0.6474
 1395WAT      O 4703   0.246   3.917   1.662 -0.4556  0.3633  0.1988
 1395WAT     H1 4704   0.339   3.925   1.639 -0.2364 -0.0160  0.9484
 1395WAT     H2 4705   0.211   4.006   1.648  0.2736  0.7946  1.0236
 1396WAT      O 4706   4.267   1.665   1.944 -0.0172 -0.7512  0.0462
 1396WAT     H1 4707   4.190   1.618   1.912 -0.5406 -0.7329  1.2410
 1396WAT     H2 4708   4.236   1.755   1.959  0.5261 -0.4590 -0.5083
 1397WAT      O 4709   4.601   2.154   1.327 -0.1505 -0.5799 -0.3821
 1397WAT     H1 4710   4.674   2.118   1.276  1.8303  2.2142  0.1943
 1397WAT     H2 4711   4.632   2.151   1.418 -1.2207 -0.2959  0.0035
 1398WAT      O 4712   6.660   3.729   1.004  0.5409 -0.1019 -0.5639
 1398WAT     H1 4713   6.696   3.813   1.032  0.2907 -0.1687 -0.0255
 1398WAT     H2 4714   6.668   3.673   1.081  0.4330 -0.4846 -0.8295
 1399WAT      O 4715   0.012   1.059   1.899  0.0234  0.6165 -0.0503
 1399WAT     H1 4716   0.045   0.970   1.890  0.2335  0.5078  1.5528
 1399WAT     H2 4717   0.042   1.104   1.820  1.8437 -0.1531  0.1494
 1400WAT      O 4718   4.390   1.164   0.209  0.0016  0.4375  0.1493
 1400WAT     H1 4719   4.374   1.107   0.284 -0.4482 -1.2885 -1.1723
 1400WAT     H2 4720   4.448   1.113   0.152 -0.4581  1.2709 -1.1207
 1401WAT      O 4721   6.847   3.051   1.622 -0.1088 -0.2996  0.1406
 1401WAT     H1 4722   6.892   2.968   1.614  0.0337 -0.0929 -1.4736
 1401WAT     H2 4723   6.917   3.117   1.624 -0.2002 -0.1941  1.7663
 1402WAT      O 4724   5.628   2.726   5.682 -0.3371  0.2031 -0.6055
 1402WAT     H1 4725   5.579   2.805   5.658 -2.7750 -0.8419  0.6538
 1402WAT     H2 4726   5.615   2.717   5.776  0.2644 -1.4529 -0.6490
 1403WAT      O 4727   6.448   3.901   1.927 -0.3323  0.3922 -0.1632
 1403WAT     H1 4728   6.430   3.865   1.841 -1.9676 -2.9642  1.4050
 1403WAT     H2 4729   6.388   3.855   1.986 -0.1799  3.3978  2.6655
 1404WAT      O 4730   4.293   2.532   1.953 -0.1609 -0.5271 -0.0422
 1404WAT     H1 4731   4.254   2.470   1.892 -2.0979  1.9803 -1.5424
 1404WAT     H2 4732   4.387   2.527   1.936 -0.3805 -2.1459 -0.9568
 1405WAT      O 4733   6.388   2.350   4.174 -0.3993  0.8042 -0.4419
 1405WAT     H1 4734   6.352   2.297   4.244 -2.2536  2.7461  0.1973
 1405WAT     H2 4735   6.366   2.302   4.094 -3.1456  1.0771  0.0256
 1406WAT      O 4736   0.760   3.737   1.099 -0.1798  0.1043  0.3035
 1406WAT     H1 4737   0.707   3.797   1.151  1.0904  1.4234  0.1480
 1406WAT     H2 4738   0.746   3.766   1.008 -0.4564 -0.5910  0.1203
 1407WAT      O 4739   4.507   0.342   1.830 -0.2655  0.1939 -0.5694
 1407WAT     H1 4740   4.510   0.312   1.739  1.0920  0.2532 -0.5599
 1407WAT     H2 4741   4.489   0.263   1.881 -0.7732  0.1165 -0.8623
 1408WAT      O 4742   4.321   0.929   3.026 -0.3259  0.6814  0.8482
 1408WAT     H1 4743   4.358   0.855   2.978 -0.5193  0.8942  0.3667
 1408WAT     H2 4744   4.382   1.001   3.010 -0.1818  0.6495  1.2479
 1409WAT      O 4745   6.749   1.395   2.507 -0.2942 -0.3739 -0.1919
 1409WAT     H1 4746   6.835   1.391   2.466  0.2726  0.7678  0.8212
 1409WAT     H2 4747   6.743   1.316   2.560 -0.1107 -0.7214 -0.6801
 1410WAT      O 4748   0.554   2.816   2.783  0.2290 -0.3617 -0.0686
 1410WAT     H1 4749   0.596   2.779   2.706 -0.0885 -1.1347  0.1124
 1410WAT     H2 4750   0.461   2.820   2.760 -0.0329 -1.6507  0.6522
 1411WAT      O 4751   5.000   3.845   5.867 -0.4667  0.1908 -0.2403
 1411WAT     H1 4752   5.011   3.873   5.957  0.2712  0.8890 -0.5405
 1411WAT     H2 4753   4.944   3.767   5.873 -0.9897  0.6241  0.7507
 1412WAT      O 4754   3.554   0.930   3.181 -0.1744  0.2497 -0.3552
 1412WAT     H1 4755   3.507   0.859   3.138  0.1773  0.6261 -1.3954
 1412WAT     H2 4756   3.647   0.913   3.161  0.1867 -0.5873  1.8254
 1413WAT      O 4757   4.747   1.375   1.485 -0.3723 -0.3790  0.0342
 1413WAT     H1 4758   4.727   1.358   1.392  0.7497 -3.0362  0.1831
 1413WAT     H2 4759   4.686   1.319   1.533  0.0190 -0.1136  0.8571
 1414WAT      O 4760   7.391   4.097   3.502 -0.5403 -0.4804 -0.0399
 1414WAT     H1 4761   7.323   4.073   3.564 -0.5698  1.6595  0.8636
 1414WAT     H2 4762   7.344   4.141   3.431 -0.2331  0.0648  0.0803
 1415WAT      O 4763   7.209   2.724   2.799  0.5396 -0.1036  0.7957
 1415WAT     H1 4764   7.134   2.745   2.854  0.8408  0.1279  1.1207
 1415WAT     H2 4765   7.185   2.757   2.712 -0.4774 -1.5933  0.4575
 1416WAT      O 4766   6.347   2.783   1.731  0.1465  0.7905 -0.0098
 1416WAT     H1 4767   6.295   2.805   1.654 -1.1237 -0.7454  0.3499
 1416WAT     H2 4768   6.344   2.688   1.736  2.3917  0.6852  0.4929
 1417WAT      O 4769   6.924   2.241   0.415 -0.1412 -0.4479 -0.2750
 1417WAT     H1 4770   6.968   2.232   0.499 -0.5020  1.0472  0.1116
 1417WAT     H2 4771   6.962   2.173   0.360  0.0812 -1.4644  1.0960
 1418WAT      O 4772   5.520   2.268   2.794  0.3076 -0.4399 -0.4618
 1418WAT     H1 4773   5.591   2.327   2.820  0.0840 -0.1698 -0.4613
 1418WAT     H2 4774   5.565   2.189   2.763  0.5806 -0.8776  0.9698
 1419WAT      O 4775   5.542   1.853   1.100  0.4180 -0.7152  0.0594
 1419WAT     H1 4776   5.573   1.888   1.184 -1.4709 -0.3728  0.6652
 1419WAT     H2 4777   5.597   1.896   1.035  0.9510  0.1404  1.0391
 1420WAT      O 4778   6.956   0.984   1.953 -0.3956 -0.4131  0.3741
 1420WAT     H1 4779   7.006   0.907   1.925  0.5515 -0.0594  1.0283
 1420WAT     H2 4780   6.972   1.050   1.886 -2.0634 -1.0867 -0.7485
 1421WAT      O 4781   6.273   4.455   4.323  0.0208  0.3293 -0.0390
 1421WAT     H1 4782   6.207   4.522   4.339  1.3727  1.5060  0.8739
 1421WAT     H2 4783   6.224   4.373   4.320 -1.3345  0.9744  2.1340
 1422WAT      O 4784   6.184   2.967   1.245  0.6488 -0.6856 -0.4011
 1422WAT     H1 4785   6.216   2.895   1.191 -0.4336 -0.0851 -1.8873
 1422WAT     H2 4786   6.230   3.044   1.212  0.3072 -0.3789 -0.1661
 1423WAT      O 4787   6.014   2.167   2.234 -0.1243 -0.2414 -0.0257
 1423WAT     H1 4788   6.025   2.260   2.210 -0.9376 -0.0330  0.3746
 1423WAT     H2 4789   5.920   2.158   2.251 -0.2424 -1.4163 -1.1836
 1424WAT      O 4790   1.400   3.515   1.618  0.1049  0.6676 -0.3144
 1424WAT     H1 4791   1.343   3.442   1.596  0.4230 -0.1687  1.5236
 1424WAT     H2 4792   1.342   3.592   1.617 -0.8590 -0.0235  0.5212
 1425WAT      O 4793   5.136   5.634   2.659  0.0832  0.5381 -0.0479
 1425WAT     H1 4794   5.198   5.563   2.642  1.1110  1.5093 -0.4961
 1425WAT     H2 4795   5.183   5.693   2.718 -1.3213  0.1135  1.5722
 1426WAT      O 4796   4.419   1.003   2.141 -0.4221  0.5810 -0.3691
 1426WAT     H1 4797   4.384   0.915   2.155 -1.7330  1.1224 -0.1741
 1426WAT     H2 4798   4.388   1.028   2.054  0.5664  0.5762 -0.7351
 1427WAT      O 4799   5.013   3.295   5.617  0.0749  0.0147  0.5202
 1427WAT     H1 4800   5.080   3.227   5.611 -1.8793 -2.1040  1.3158
 1427WAT     H2 4801   5.058   3.369   5.656  2.2635 -0.8270 -0.2138
 1428WAT      O 4802   7.000   1.446   4.742  0.2289  0.2523 -0.3521
 1428WAT     H1 4803   6.910   1.415   4.734 -0.4910  1.6669  1.5398
 1428WAT     H2 4804   6.997   1.513   4.810  2.9484 -0.5445  0.7065
 1429WAT      O 4805   6.618   3.379   5.764  0.1784  0.2419 -0.3897
 1429WAT     H1 4806   6.595   3.424   5.845  2.0956  1.1197 -0.2823
 1429WAT     H2 4807   6.655   3.295   5.793  0.3383  0.3120 -0.3924
 1430WAT      O 4808   6.792   2.494   1.061 -0.2465 -0.1519 -0.1242
 1430WAT     H1 4809   6.710   2.455   1.031 -0.2233  0.1430 -0.5686
 1430WAT     H2 4810   6.765   2.562   1.123 -0.4085  0.8194 -1.2324
 1431WAT      O 4811   6.588   3.406   1.557 -0.1889 -0.3653 -0.2780
 1431WAT     H1 4812   6.568   3.314   1.544  2.0737 -0.8995 -0.3614
 1431WAT     H2 4813   6.568   3.422   1.650 -0.1643 -1.0614 -0.1509
 1432WAT      O 4814   4.302   0.856   0.987  0.0144 -0.0894  0.4156
 1432WAT     H1 4815   4.222   0.806   1.002 -0.0961 -0.8519 -2.2068
 1432WAT     H2 4816   4.274   0.932   0.937  0.5400  1.3916  2.2613
 1433WAT      O 4817   6.243   3.814   2.403 -0.2139 -0.0891  1.1791
 1433WAT     H1 4818   6.303   3.800   2.476 -1.3984 -0.8508  2.0353
 1433WAT     H2 4819   6.163   3.768   2.428 -0.7706 -0.0702 -0.4455
 1434WAT      O 4820   3.584   1.867   0.488  0.0844 -0.4091  0.2697
 1434WAT     H1 4821   3.630   1.886   0.406  0.1100  0.7514  0.5311
 1434WAT     H2 4822   3.566   1.773   0.484  1.1681 -0.6121 -0.5073
 1435WAT      O 4823   3.996   2.331   1.525  0.4528  0.4239 -0.1063
 1435WAT     H1 4824   3.944   2.382   1.463 -0.6390 -0.8303 -0.2805
 1435WAT     H2 4825   4.002   2.244   1.485  0.5517 -0.1438  1.0976
 1436WAT      O 4826   6.358   1.773   4.495 -0.1800  0.3387 -0.3419
 1436WAT     H1 4827   6.357   1.706   4.563  1.7635 -1.0312 -1.5586
 1436WAT     H2 4828   6.266   1.788   4.475 -0.6939 -1.1853  0.7171
 1437WAT      O 4829   6.052   3.097   5.440  0.4193 -0.3403  0.2739
 1437WAT     H1 4830   6.092   3.172   5.485 -0.3854  1.0688 -1.2791
 1437WAT     H2 4831   6.116   3.027   5.450  2.1808  1.1540 -0.0205
 1438WAT      O 4832   7.231   2.715   4.622  0.1178 -0.3581  0.2386
 1438WAT     H1 4833   7.267   2.799   4.648  0.4252 -0.6215  0.6924
 1438WAT     H2 4834   7.146   2.711   4.666 -1.0616  0.7818 -1.7951
 1439WAT      O 4835   4.869   2.482   1.509  0.0610  0.0736  0.3109
 1439WAT     H1 4836   4.801   2.416   1.524  0.0216  0.5596  2.6281
 1439WAT     H2 4837   4.853   2.514   1.420 -3.6007  1.1077  1.1859
 1440WAT      O 4838   5.259   2.134   2.319 -0.1648 -0.0093  0.4389
 1440WAT     H1 4839   5.346   2.098   2.335 -0.0211  1.2827  3.2270
 1440WAT     H2 4840   5.223   2.080   2.248  1.9565 -2.1255  0.8411
 1441WAT      O 4841   5.736   3.992   2.084 -0.2639  0.0784 -0.3575
 1441WAT     H1 4842   5.745   3.900   2.108  0.2062  0.4687  1.0341
 1441WAT     H2 4843   5.678   4.029   2.150 -0.9040  0.6841 -1.2214
 1442WAT      O 4844   0.989   3.976   0.317 -0.1448 -0.1643 -0.4171
 1442WAT     H1 4845   0.926   3.914   0.354 -0.0531 -1.0226 -1.6375
 1442WAT     H2 4846   1.067   3.966   0.372 -1.1191  1.1232  1.2909
 1443WAT      O 4847   5.687   2.432   0.809 -0.4013 -0.0818  0.4823
 1443WAT     H1 4848   5.732   2.350   0.787 -1.7575 -0.2860 -1.9068
 1443WAT     H2 4849   5.608   2.404   0.855 -1.7887 -0.3731 -1.8947
 1444WAT      O 4850   7.219   3.091   4.115  0.5489  0.5031  0.3128
 1444WAT     H1 4851   7.256   3.077   4.028 -2.1657 -2.6864 -0.5413
 1444WAT     H2 4852   7.174   3.175   4.109 -0.0475  0.0893 -1.5874
 1445WAT      O 4853   4.707   2.309   0.373  0.7485  0.1048  0.9141
 1445WAT     H1 4854   4.730   2.378   0.311 -0.1927  0.8180  1.3346
 1445WAT     H2 4855   4.684   2.234   0.318  1.5502  0.1875  0.4494
 1446WAT      O 4856   6.390   2.936   5.740 -0.0295  0.1835  0.3458
 1446WAT     H1 4857   6.415   2.998   5.808 -1.4714 -0.4355  1.4951
 1446WAT     H2 4858   6.372   2.855   5.787 -1.5102 -0.1365 -0.7054
 1447WAT      O 4859   4.636   0.076   4.551 -0.6504 -0.1013  0.2853
 1447WAT     H1 4860   4.687   0.151   4.519 -1.3145  0.8819  1.4096
 1447WAT     H2 4861   4.689  -0.000   4.530  1.1210  0.8491  1.0586
 1448WAT      O 4862   5.378   1.722   4.749 -0.4988  0.1101 -0.0192
 1448WAT     H1 4863   5.360   1.650   4.689  0.0058 -0.1064  0.0807
 1448WAT     H2 4864   5.437   1.685   4.815  0.9540  0.9685 -0.7814
 1449WAT      O 4865   4.617   2.344   5.284 -0.3315  0.1261  0.3401
 1449WAT     H1 4866   4.591   2.436   5.290  1.8661  0.8289  0.1260
 1449WAT     H2 4867   4.713   2.347   5.285 -0.2162 -2.1730  0.2687
 1450WAT      O 4868   4.632   2.226   0.007 -0.0694 -0.6036  0.7798
 1450WAT     H1 4869   4.633   2.190   0.096 -0.0604 -1.1621  0.5575
 1450WAT     H2 4870   4.717   2.268  -0.002 -1.3429  2.6001  2.2806
 1451WAT      O 4871   4.046   0.798   1.629 -0.5308  0.4794  0.2148
 1451WAT     H1 4872   4.040   0.821   1.721 -0.1644 -0.5368  0.5058
 1451WAT     H2 4873   4.110   0.727   1.626 -1.4433 -0.3326 -0.6649
 1452WAT      O 4874   5.883   5.250   3.568 -0.1171 -0.2736 -0.3886
 1452WAT     H1 4875   5.831   5.238   3.489 -0.1970 -1.7089 -0.1474
 1452WAT     H2 4876   5.966   5.206   3.549 -0.1119 -0.5707  0.2842
 1453WAT      O 4877   4.256   0.844   4.367 -0.1322 -0.2710  0.3626
 1453WAT     H1 4878   4.310   0.777   4.326 -0.9982 -0.4834 -0.4713
 1453WAT     H2 4879   4.171   0.802   4.381 -1.1825  1.0441 -1.5817
 1454WAT      O 4880   4.716   2.724   0.592  0.0090 -0.1382  0.1463
 1454WAT     H1 4881   4.750   2.777   0.664  1.9369  0.6057 -1.2453
 1454WAT     H2 4882   4.629   2.697   0.622  1.2788 -1.1187  3.3822
 1455WAT      O 4883   3.864   6.043   0.476 -0.3848  0.0538 -0.1742
 1455WAT     H1 4884   3.933   6.072   0.536 -0.4239 -1.4627  0.6413
 1455WAT     H2 4885   3.911   6.000   0.405 -0.4789 -1.5963  0.7236
 1456WAT      O 4886   5.376   2.681   4.000 -0.2299 -0.0980 -0.3178
 1456WAT     H1 4887   5.450   2.727   4.040  0.3257 -0.2437 -1.1599
 1456WAT     H2 4888   5.367   2.721   3.914 -1.7253  0.5491  0.1092
 1457WAT      O 4889   3.156   1.447   3.373 -0.2983  0.6488  0.4995
 1457WAT     H1 4890   3.164   1.353   3.361  1.2762  0.7414  0.5961
 1457WAT     H2 4891   3.194   1.485   3.293  1.2785  1.1793  1.4379
 1458WAT      O 4892   4.458   1.153   2.933  0.0678 -0.1793  0.6450
 1458WAT     H1 4893   4.532   1.211   2.945 -0.4248  0.5331  0.3082
 1458WAT     H2 4894   4.445   1.148   2.838 -1.0050  0.6128  0.7309
 1459WAT      O 4895   5.118   2.228   5.056  0.0562 -0.2882 -0.0874
 1459WAT     H1 4896   5.207   2.198   5.037 -0.7047 -1.5677 -2.0121
 1459WAT     H2 4897   5.103   2.298   4.992 -0.7420 -1.0180 -0.7396
 1460WAT      O 4898   4.774   3.199   5.502 -0.1609  0.0246 -0.1990
 1460WAT     H1 4899   4.841   3.233   5.562 -0.1555  1.1646 -0.8234
 1460WAT     H2 4900   4.692   3.236   5.534 -0.0797  1.1789 -1.2360
 1461WAT      O 4901   3.731   2.173   5.438  0.3868  0.2833  0.3265
 1461WAT     H1 4902   3.734   2.268   5.427  1.1140  0.3297  0.8013
 1461WAT     H2 4903   3.691   2.140   5.357 -0.6275  1.0411  0.5013
 1462WAT      O 4904   4.400   1.257   0.574 -0.3544 -0.1097 -0.3762
 1462WAT     H1 4905   4.403   1.339   0.525  1.5217  0.1407  0.0779
 1462WAT     H2 4906   4.486   1.251   0.615 -0.6800 -2.0161  0.1036
 1463WAT      O 4907   3.083   5.890   3.908  0.2071 -0.1979 -0.1462
 1463WAT     H1 4908   3.139   5.842   3.846 -0.0279 -0.4117 -0.1959
 1463WAT     H2 4909   2.998   5.893   3.865 -0.5282 -2.1714  1.0551
 1464WAT      O 4910   4.757   5.922   2.983 -0.1977 -0.4437 -0.1932
 1464WAT     H1 4911   4.707   5.840   2.984  0.7802 -1.0872 -1.0978
 1464WAT     H2 4912   4.828   5.907   3.045  0.4743 -0.6235 -0.9890
 1465WAT      O 4913   6.405   6.099   3.179 -0.3049  0.5478  0.4225
 1465WAT     H1 4914   6.380   6.046   3.255 -2.5788  0.0492 -0.5949
 1465WAT     H2 4915   6.452   6.039   3.122 -0.3090  0.4063  0.5666
 1466WAT      O 4916   4.573   0.092   4.908 -0.5897  0.1630  0.0333
 1466WAT     H1 4917   4.633   0.158   4.945 -1.1915  0.3732  0.6529
 1466WAT     H2 4918   4.607   0.076   4.820 -0.7975  1.7585 -0.3654
 1467WAT      O 4919   7.109   0.275   2.871 -0.0426 -1.0160 -0.5247
 1467WAT     H1 4920   7.185   0.310   2.917 -0.5204 -0.2152 -0.3286
 1467WAT     H2 4921   7.089   0.339   2.803 -0.4412 -1.2937 -0.6767
 1468WAT      O 4922   6.314   0.620   2.928 -0.2614  0.1439  0.3411
 1468WAT     H1 4923   6.302   0.704   2.884  0.8415 -0.1021 -0.4417
 1468WAT     H2 4924   6.306   0.555   2.859 -0.7628 -0.3886  0.8859
 1469WAT      O 4925   5.210   2.435   4.188 -0.3018 -0.0081  0.0998
 1469WAT     H1 4926   5.255   2.384   4.122  0.1519  0.3183  0.1524
 1469WAT     H2 4927   5.133   2.470   4.143  0.0601  0.2992 -0.2903
 1470WAT      O 4928   4.749   0.552   0.346  0.0557  0.2538  0.0491
 1470WAT     H1 4929   4.748   0.581   0.437 -1.9376 -1.4986  0.6645
 1470WAT     H2 4930   4.734   0.457   0.350  1.0945 -0.0679 -2.0664
 1471WAT      O 4931   5.078   1.644   0.903 -0.0904  0.5998  0.2389
 1471WAT     H1 4932   5.168   1.673   0.886 -0.2296  1.1292  0.4016
 1471WAT     H2 4933   5.061   1.579   0.835  0.8152 -0.3463  0.8929
 1472WAT      O 4934   5.477   0.888   3.285  0.2709 -0.0588 -0.1625
 1472WAT     H1 4935   5.488   0.967   3.232  0.3297  0.1489  0.1556
 1472WAT     H2 4936   5.540   0.898   3.356  0.1641 -0.3156 -0.0293
 1473WAT      O 4937   5.204   1.944   4.763  0.1584  0.2888  0.1622
 1473WAT     H1 4938   5.228   1.852   4.749  0.8797  0.6925 -1.5370
 1473WAT     H2 4939   5.270   1.977   4.823  0.6221 -0.0173 -0.1677
 1474WAT      O 4940   4.379   0.590   0.659  0.2100 -0.2014  0.0230
 1474WAT     H1 4941   4.437   0.663   0.641  2.0627 -1.1398  1.8128
 1474WAT     H2 4942   4.291   0.627   0.652  1.0597  1.8760 -0.2721
 1475WAT      O 4943   5.550   4.755   5.254 -0.1744 -0.3602 -0.6267
 1475WAT     H1 4944   5.591   4.812   5.189  0.4119  1.2473  1.0743
 1475WAT     H2 4945   5.470   4.801   5.279 -0.0463 -0.6148  0.2765
 1476WAT      O 4946   5.025   2.117   0.136 -0.3272  0.5249 -0.0662
 1476WAT     H1 4947   5.032   2.133   0.230  1.4864 -0.9336  0.1013
 1476WAT     H2 4948   5.007   2.023   0.130 -0.3453  0.5930 -1.1702
 1477WAT      O 4949   5.294   2.326   5.296  0.2292 -0.7736  0.7220
 1477WAT     H1 4950   5.208   2.295   5.268 -0.2344  0.7779  0.3229
 1477WAT     H2 4951   5.354   2.255   5.275 -0.3366 -0.3822 -2.6737
 1478WAT      O 4952   0.756   1.279   2.820 -0.2716 -0.1382  0.1123
 1478WAT     H1 4953   0.667   1.292   2.787  0.1689  0.7401 -0.8010
 1478WAT     H2 4954   0.761   1.186   2.841 -0.6760 -0.7103 -2.0755
 1479WAT      O 4955   5.927   6.041   3.111 -0.2579  0.2327 -0.2700
 1479WAT     H1 4956   5.910   6.089   3.192  3.6033  0.4642  0.5993
 1479WAT     H2 4957   5.949   5.952   3.140  2.7949  0.7172 -0.7210
 1480WAT      O 4958   4.062   5.750   3.978  0.1029 -0.4142  0.1071
 1480WAT     H1 4959   4.122   5.791   3.916 -1.2457  0.0099 -0.9704
 1480WAT     H2 4960   4.046   5.816   4.044 -0.1006 -0.0934 -0.2591
 1481WAT      O 4961   4.967   0.885   2.860  0.6551 -0.1095 -0.0007
 1481WAT     H1 4962   5.000   0.959   2.911  2.7345  1.0960 -2.8689
 1481WAT     H2 4963   5.039   0.821   2.860  0.3258 -0.4918 -0.6362
 1482WAT      O 4964   4.539   5.759   3.002 -0.1301 -0.3592 -0.6384
 1482WAT     H1 4965   4.465   5.734   3.057 -0.1045 -2.7869 -1.5856
 1482WAT     H2 4966   4.515   5.730   2.914  1.4914 -0.1877 -1.1805
 1483WAT      O 4967   5.487   2.478   0.584  0.3075  0.5749 -0.5304
 1483WAT     H1 4968   5.417   2.544   0.586  0.9717  1.3195 -1.5552
 1483WAT     H2 4969   5.553   2.512   0.645 -0.4284 -0.4184  0.8999
 1484WAT      O 4970   4.191   2.016   4.431 -0.6535  0.4210 -0.2009
 1484WAT     H1 4971   4.232   1.931   4.416 -0.7427  0.1494  0.9890
 1484WAT     H2 4972   4.244   2.056   4.501  0.4643  2.1032 -1.9106
 1485WAT      O 4973   5.722   1.833   4.041 -0.5483 -0.5938  0.5730
 1485WAT     H1 4974   5.738   1.925   4.059  0.6730 -0.7045  0.1504
 1485WAT     H2 4975   5.784   1.811   3.972 -1.7683 -1.3937 -0.3040
 1486WAT      O 4976   4.572   0.048   6.002  0.0857  0.2971  0.3576
 1486WAT     H1 4977   4.626  -0.005   6.061 -0.3417 -0.3194  0.2016
 1486WAT     H2 4978   4.490   0.060   6.050  0.2323  0.9368  0.4493
 1487WAT      O 4979   5.387   5.766   1.543  0.5314  0.4052 -0.2194
 1487WAT     H1 4980   5.448   5.726   1.605  0.4771 -0.2989 -0.6109
 1487WAT     H2 4981   5.373   5.698   1.476 -0.7024  0.5537 -0.1248
 1488WAT      O 4982   0.023   0.580   3.868 -0.1963  0.2716 -0.6174
 1488WAT     H1 4983  -0.054   0.525   3.882  0.3065 -0.4801 -0.7340
 1488WAT     H2 4984   0.001   0.634   3.792  0.6709 -2.4375 -2.9835
 1489WAT      O 4985   5.049   0.188   3.518  0.5681  0.2364  0.3359
 1489WAT     H1 4986   5.026   0.241   3.441 -0.6399  1.0705  1.2353
 1489WAT     H2 4987   5.073   0.251   3.585 -1.8938 -0.1919  1.7674
 1490WAT      O 4988   3.991   1.378   0.011  0.0080 -0.0553  0.6479
 1490WAT     H1 4989   3.990   1.377   0.106 -0.0772 -0.2057  0.6449
 1490WAT     H2 4990   3.934   1.452  -0.013  2.2525  1.8224  0.7615
 1491WAT      O 4991   4.903   0.529   5.376  0.0170 -0.2129 -0.1517
 1491WAT     H1 4992   4.897   0.607   5.431 -1.4656 -0.8345  0.6200
 1491WAT     H2 4993   4.966   0.473   5.422  0.6399  0.2762 -0.4006
 1492WAT      O 4994   5.571   1.942   4.968  0.1983 -0.1963  0.5049
 1492WAT     H1 4995   5.603   2.031   4.951  0.8732 -0.4515  0.4129
 1492WAT     H2 4996   5.478   1.946   4.948  0.6205 -0.0585 -1.6363
 1493WAT      O 4997   6.474   0.997   2.848  0.5697  0.0152 -0.5004
 1493WAT     H1 4998   6.455   0.997   2.942 -0.8074  0.4981 -0.7540
 1493WAT     H2 4999   6.399   0.952   2.809  0.7319  0.5432 -1.4445
 1494WAT      O 5000   0.111   4.637   3.827 -0.2643 -0.2853  0.5587
 1494WAT     H1 5001   0.151   4.628   3.741 -0.3891 -0.3359  0.5064
 1494WAT     H2 5002   0.111   4.549   3.863  0.4280 -0.1526  0.8963
 1495WAT      O 5003   5.826   1.651   2.996 -0.4413 -0.0146 -0.1402
 1495WAT     H1 5004   5.862   1.698   3.072  1.1847  0.1736 -0.9764
 1495WAT     H2 5005   5.732   1.670   2.998 -0.2955  0.6599  1.3472
 1496WAT      O 5006   5.483   0.249   3.277  0.0440 -0.4804  0.4031
 1496WAT     H1 5007   5.432   0.328   3.261  0.2169 -0.5016 -0.2707
 1496WAT     H2 5008   5.516   0.260   3.366  1.1796  0.8377 -0.1563
 1497WAT      O 5009   5.286   1.556   3.242 -0.2322  0.1434  0.5982
 1497WAT     H1 5010   5.269   1.486   3.179  0.0463  0.5430  0.0723
 1497WAT     H2 5011   5.271   1.515   3.328  1.5054 -1.0371  0.4051
 1498WAT      O 5012   5.666   1.087   4.497  0.3814  0.0556 -0.1723
 1498WAT     H1 5013   5.639   1.160   4.553  2.6125  0.1826  0.8830
 1498WAT     H2 5014   5.599   1.020   4.510  0.3769  0.4175  2.0441
 1499WAT      O 5015   4.652   1.951   2.916  0.1703 -0.8925 -0.6297
 1499WAT     H1 5016   4.619   1.878   2.863 -0.6996 -1.1599  0.2431
 1499WAT     H2 5017   4.674   1.911   3.000 -0.5781 -0.1174 -0.0464
 1500WAT      O 5018   6.005   1.867   4.953 -0.4227 -0.4047  0.4739
 1500WAT     H1 5019   5.973   1.781   4.981 -1.6887 -0.1487 -0.1209
 1500WAT     H2 5020   5.937   1.900   4.894  0.5232  0.5792 -0.1015
 1501WAT      O 5021   6.809   5.849   3.646 -0.0015 -0.3074 -0.0699
 1501WAT     H1 5022   6.891   5.857   3.697 -0.1180 -1.2578  0.2863
 1501WAT     H2 5023   6.772   5.766   3.674 -2.3313  1.1670  1.5789
 1502WAT      O 5024   6.682   0.247   3.256  0.2590 -0.0090 -0.3278
 1502WAT     H1 5025   6.762   0.255   3.204  0.4235  1.0015  0.0626
 1502WAT     H2 5026   6.705   0.187   3.328  0.1651 -1.0327 -1.1304
 1503WAT      O 5027   6.293   1.355   3.652  0.0305 -1.4669 -0.3079
 1503WAT     H1 5028   6.263   1.360   3.562  0.8173  0.5029 -0.5201
 1503WAT     H2 5029   6.388   1.345   3.646  0.1355 -0.9302  0.2827
 1504WAT      O 5030   5.190   0.393   2.946  0.1055  0.0520 -0.3071
 1504WAT     H1 5031   5.160   0.366   2.859  1.2206  0.3176 -0.7928
 1504WAT     H2 5032   5.113   0.384   3.002 -0.1399 -2.0456 -0.8896
 1505WAT      O 5033   0.945   2.838   2.125 -0.0580 -0.1816  0.1934
 1505WAT     H1 5034   0.980   2.870   2.042  0.3320 -0.8318  0.1013
 1505WAT     H2 5035   0.973   2.902   2.189  0.4324 -0.1653 -0.0369
 1506WAT      O 5036   7.161   5.952   2.068 -0.1707 -0.4045 -0.0917
 1506WAT     H1 5037   7.090   5.997   2.022  0.4626  0.3654 -0.3380
 1506WAT     H2 5038   7.134   5.954   2.160 -0.6148 -0.3961 -0.2179
 1507WAT      O 5039   6.998   5.578   2.811  0.0209 -0.5922 -0.4557
 1507WAT     H1 5040   6.908   5.561   2.839 -0.0596 -1.3532 -1.1527
 1507WAT     H2 5041   7.007   5.673   2.818 -1.3164 -0.3355 -1.7749
 1508WAT      O 5042   5.230   5.676   3.083  0.0843 -0.0327  0.3083
 1508WAT     H1 5043   5.184   5.731   3.146  0.9363  0.2397  0.7072
 1508WAT     H2 5044   5.274   5.737   3.025 -0.1280 -0.2890 -0.1288
 1509WAT      O 5045   6.021   0.865   2.504 -0.1638 -0.0959 -0.8816
 1509WAT     H1 5046   6.103   0.862   2.455 -1.2336 -0.1859 -2.7767
 1509WAT     H2 5047   6.047   0.868   2.596  1.9393 -0.2960 -1.4358
 1510WAT      O 5048   6.416   0.954   3.129  0.1204 -0.3434 -0.0166
 1510WAT     H1 5049   6.501   0.928   3.165 -0.2559  0.5996  1.6579
 1510WAT     H2 5050   6.354   0.941   3.201 -1.3818 -1.9530 -1.4871
 1511WAT      O 5051   5.843   4.742   3.333 -0.7884 -0.3158 -0.2790
 1511WAT     H1 5052   5.866   4.691   3.255 -2.4112 -0.0725 -0.9632
 1511WAT     H2 5053   5.775   4.690   3.376 -1.3994  0.5399 -0.1836
 1512WAT      O 5054   0.716   2.364   2.205  0.5663 -0.5094  0.0727
 1512WAT     H1 5055   0.793   2.369   2.261  0.4157  0.1643  0.2304
 1512WAT     H2 5056   0.646   2.403   2.258  0.2316 -0.6597 -0.2561
 1513WAT      O 5057   4.799   1.196   4.292  0.2310  0.3369  0.2832
 1513WAT     H1 5058   4.787   1.232   4.380  2.4648  1.1056  0.3312
 1513WAT     H2 5059   4.754   1.258   4.235  0.3668  0.8530  0.7274
 1514WAT      O 5060   0.203   1.442   1.779  0.2214  0.6968 -0.5364
 1514WAT     H1 5061   0.153   1.378   1.830  1.3413  0.0446 -0.2067
 1514WAT     H2 5062   0.282   1.457   1.831 -0.0080  2.3486 -0.6291
 1515WAT      O 5063   5.905   3.036   4.632  0.1169  0.1325  0.1532
 1515WAT     H1 5064   5.834   2.974   4.644 -0.0534  0.5329  1.4256
 1515WAT     H2 5065   5.897   3.096   4.706  1.3577  0.5977 -0.0591
 1516WAT      O 5066   4.348   3.111   5.575 -0.1424 -0.3420 -0.0470
 1516WAT     H1 5067   4.357   3.128   5.482  0.5092  0.4898  0.1585
 1516WAT     H2 5068   4.384   3.188   5.618  0.3916 -1.0884  0.9060
 1517WAT      O 5069   5.438   2.681   4.749 -0.8262 -0.4665 -0.2841
 1517WAT     H1 5070   5.534   2.681   4.755 -0.8051  1.3724 -0.1323
 1517WAT     H2 5071   5.408   2.689   4.840 -1.0060  2.6414 -0.5346
 1518WAT      O 5072   5.176   0.944   3.798  0.5072  0.3774  0.0199
 1518WAT     H1 5073   5.157   1.030   3.836 -0.4178  0.3040 -0.2620
 1518WAT     H2 5074   5.238   0.904   3.859  1.7078  1.6165 -0.3359
 1519WAT      O 5075   7.111   1.068   2.961 -0.2940 -0.8580  0.5866
 1519WAT     H1 5076   7.199   1.068   2.922 -0.4358  1.3818  0.1065
 1519WAT     H2 5077   7.127   1.084   3.054 -0.1801 -0.0093  0.4321
 1520WAT      O 5078   5.855   0.073   3.352 -0.0519  0.0251  0.7316
 1520WAT     H1 5079   5.843   0.030   3.437 -0.6298  0.3491  0.8141
 1520WAT     H2 5080   5.916   0.145   3.371  0.6790 -0.5513  0.6520
 1521WAT      O 5081   6.014   1.920   4.118  0.6139  0.1535  0.2669
 1521WAT     H1 5082   5.942   1.876   4.072  0.8669 -0.0757  0.0820
 1521WAT     H2 5083   6.015   1.880   4.205  1.4495 -0.9201 -0.2021
 1522WAT      O 5084   5.701   1.897   3.274  0.3549 -0.7671  0.0519
 1522WAT     H1 5085   5.742   1.873   3.358 -0.5022  0.6123  0.9044
 1522WAT     H2 5086   5.622   1.843   3.269  1.0085 -1.7106 -0.4643
 1523WAT      O 5087   3.578   1.256   2.126  0.1923 -0.1422  0.5921
 1523WAT     H1 5088   3.570   1.295   2.039 -0.9322  2.0013  1.5842
 1523WAT     H2 5089   3.488   1.249   2.158  0.6290 -0.0484  1.9155
 1524WAT      O 5090   5.486   1.173   4.033 -0.1088 -0.7373  0.6462
 1524WAT     H1 5091   5.478   1.267   4.051 -2.4349 -0.6922 -0.3533
 1524WAT     H2 5092   5.474   1.131   4.118 -0.3243 -0.1876  0.8902
 1525WAT      O 5093   5.035   0.516   4.683  0.0595 -0.1576  0.2960
 1525WAT     H1 5094   5.030   0.424   4.656  1.0476  0.2522 -1.4473
 1525WAT     H2 5095   4.969   0.524   4.752 -2.0178 -1.5433 -1.3803
 1526WAT      O 5096   7.401   0.349   3.427 -0.5353  0.8516  0.0332
 1526WAT     H1 5097   7.330   0.355   3.490  0.1076  1.8126  0.6957
 1526WAT     H2 5098   7.478   0.380   3.474  0.0736  1.0480 -1.0397
 1527WAT      O 5099   5.669   1.211   2.409 -0.4631  0.3701 -0.6628
 1527WAT     H1 5100   5.755   1.170   2.398  0.4478  1.6960  1.0378
 1527WAT     H2 5101   5.688   1.305   2.419 -1.9699  0.5634  0.9628
 1528WAT      O 5102   1.277   2.395   3.731  0.2122 -0.1569  0.4782
 1528WAT     H1 5103   1.334   2.450   3.785 -0.4659  0.6540  0.3901
 1528WAT     H2 5104   1.211   2.455   3.697  1.1516 -0.4507 -2.0542
 1529WAT      O 5105   4.706   0.439   2.796 -0.4685 -0.2037 -0.4391
 1529WAT     H1 5106   4.746   0.457   2.711  0.7947 -1.8301 -0.2464
 1529WAT     H2 5107   4.739   0.352   2.820 -0.6635  0.2792  1.7900
 1530WAT      O 5108   5.839   5.517   2.738 -0.2677 -0.0204  0.9507
 1530WAT     H1 5109   5.881   5.559   2.813  1.5454 -1.4317  0.8244
 1530WAT     H2 5110   5.766   5.468   2.775 -0.4505  0.6600  1.5203
 1531WAT      O 5111   5.071   2.031   2.538  0.2106 -0.2285  0.6420
 1531WAT     H1 5112   5.017   2.074   2.471 -1.0548 -0.4221  1.4973
 1531WAT     H2 5113   5.161   2.047   2.510 -0.2700  0.6509 -0.4993
 1532WAT      O 5114   0.849   0.655   3.799 -0.0343 -0.4884  0.0600
 1532WAT     H1 5115   0.938   0.622   3.816  0.9902  1.3072 -1.3589
 1532WAT     H2 5116   0.839   0.647   3.704 -0.9520  0.3318  0.0790
 1533WAT      O 5117   5.892   1.102   2.851  0.1485  0.1890  0.7606
 1533WAT     H1 5118   5.892   1.134   2.942  0.3499 -0.1610  0.8851
 1533WAT     H2 5119   5.805   1.125   2.818 -0.0193  0.0924  1.1224
 1534WAT      O 5120   0.787   6.051   2.313  0.0883 -0.4196 -0.0163
 1534WAT     H1 5121   0.807   6.143   2.326 -1.9923  0.0360  0.1862
 1534WAT     H2 5122   0.821   6.007   2.391 -1.1450  0.5433  1.0887
 1535WAT      O 5123   7.001   4.054   4.104 -0.0858 -0.0811 -0.1090
 1535WAT     H1 5124   6.959   3.972   4.130  0.7930 -1.4794 -2.7217
 1535WAT     H2 5125   7.049   4.082   4.182 -1.9510 -0.9800  1.4428
 1536WAT      O 5126   6.077   1.095   3.822  0.2522  0.1136 -0.1297
 1536WAT     H1 5127   6.154   1.047   3.852 -0.9495 -1.6114  0.3303
 1536WAT     H2 5128   6.007   1.030   3.821 -1.3216  1.7350 -0.0525
 1537WAT      O 5129   0.317   5.462   2.718  0.7956  0.5512 -0.4414
 1537WAT     H1 5130   0.271   5.469   2.802  2.1110 -0.0269  0.3513
 1537WAT     H2 5131   0.266   5.399   2.668  0.9558 -0.4289  0.6007
 1538WAT      O 5132   1.192   5.900   2.917  0.6165 -0.7912 -0.6797
 1538WAT     H1 5133   1.133   5.828   2.897  0.7588 -0.0902 -4.1271
 1538WAT     H2 5134   1.279   5.865   2.900  1.0147 -0.8531  1.2715
 1539WAT      O 5135   6.465   1.039   2.227  0.6034  0.6503 -0.0896
 1539WAT     H1 5136   6.546   1.004   2.264 -1.0370 -2.0668  1.2666
 1539WAT     H2 5137   6.452   1.122   2.274  2.3263  0.9055  0.0005
 1540WAT      O 5138   7.050   1.374   2.455 -0.1433 -0.3039  0.3260
 1540WAT     H1 5139   7.084   1.460   2.478  1.2107 -0.6872 -0.1736
 1540WAT     H2 5140   7.048   1.374   2.359 -3.0020  0.2360  0.2918
 1541WAT      O 5141   5.613   3.148   3.422 -0.6207 -0.3562  0.3569
 1541WAT     H1 5142   5.578   3.205   3.354  1.0614  0.1673 -0.1209
 1541WAT     H2 5143   5.554   3.162   3.497 -1.9701 -0.2679 -0.6843
 1542WAT      O 5144   6.980   1.039   2.693 -0.2061  0.1270 -0.0488
 1542WAT     H1 5145   6.997   1.029   2.787 -1.4850  1.6232  0.3776
 1542WAT     H2 5146   7.065   1.066   2.656 -0.2276  1.8495  1.0780
 1543WAT      O 5147   6.265   5.742   2.506 -0.0809 -0.6608  0.5564
 1543WAT     H1 5148   6.219   5.661   2.529 -2.1128  0.6955  1.6172
 1543WAT     H2 5149   6.251   5.800   2.582  0.1883  1.1159 -0.6835
 1544WAT      O 5150   0.995   5.454   2.710 -0.2657 -0.3696  0.4330
 1544WAT     H1 5151   0.969   5.460   2.618  0.1454 -0.2864  0.3185
 1544WAT     H2 5152   0.913   5.443   2.758 -0.4800 -0.4270  0.0545
 1545WAT      O 5153   5.960   5.056   2.893  0.2839  0.2216  0.4619
 1545WAT     H1 5154   5.932   5.003   2.818  2.4729 -0.8173  0.2862
 1545WAT     H2 5155   5.989   5.138   2.854  0.1558  0.2081  0.3344
 1546WAT      O 5156   4.844   0.913   2.628 -0.0985 -0.4327 -0.3910
 1546WAT     H1 5157   4.923   0.921   2.574 -0.3505 -1.0998 -0.8782
 1546WAT     H2 5158   4.876   0.914   2.718  0.4005 -0.0444 -0.5674
 1547WAT      O 5159   0.552   4.504   2.499  0.1892  0.0891  0.3748
 1547WAT     H1 5160   0.481   4.464   2.550  0.5436 -0.4482  0.4552
 1547WAT     H2 5161   0.507   4.554   2.431 -0.2700 -0.6933  0.0838
 1548WAT      O 5162   4.324   1.034   3.333  0.8079  0.3876 -0.4945
 1548WAT     H1 5163   4.394   0.978   3.367  0.4488  0.4210  0.3211
 1548WAT     H2 5164   4.287   0.984   3.260 -0.6743 -1.3068  1.3071
 1549WAT      O 5165   5.183   0.484   2.439 -0.0505 -0.6278 -0.3209
 1549WAT     H1 5166   5.275   0.467   2.421  0.5066  1.4683  0.3081
 1549WAT     H2 5167   5.140   0.477   2.354  0.5249 -2.3280 -0.5113
 1550WAT      O 5168   5.374   1.815   3.886 -0.2255 -0.2063  0.0032
 1550WAT     H1 5169   5.441   1.750   3.866  1.4613  1.1057  1.1262
 1550WAT     H2 5170   5.302   1.793   3.827  1.0662 -1.8359 -1.0759
 1551WAT      O 5171   5.409   0.579   2.658 -0.5906 -0.1121 -0.2079
 1551WAT     H1 5172   5.459   0.553   2.735 -0.1356  0.3674 -0.3334
 1551WAT     H2 5173   5.322   0.542   2.672 -0.1657 -1.0877 -0.0591
 1552WAT      O 5174   4.759   0.225   4.354  0.6437  0.2295 -0.2504
 1552WAT     H1 5175   4.686   0.174   4.320 -0.8000  0.8537  1.7067
 1552WAT     H2 5176   4.785   0.282   4.282 -1.1922  0.3815 -0.8486
 1553WAT      O 5177   4.556   5.798   2.710 -0.3993 -0.0694  0.0118
 1553WAT     H1 5178   4.622   5.737   2.743  0.9895  0.1772 -2.0747
 1553WAT     H2 5179   4.555   5.782   2.615 -2.1006  1.1529 -0.2163
 1554WAT      O 5180   6.999   3.163   5.496  0.5408  0.2232  0.3790
 1554WAT     H1 5181   7.012   3.212   5.415 -1.3789 -1.1065 -0.8252
 1554WAT     H2 5182   7.080   3.113   5.507  1.2005  1.1374 -0.1855
 1555WAT      O 5183   5.370   1.206   3.490  0.3497  0.1396 -0.5390
 1555WAT     H1 5184   5.442   1.197   3.552 -0.1464 -0.1369 -0.0032
 1555WAT     H2 5185   5.291   1.205   3.543 -0.2461 -2.5833 -1.3285
 1556WAT      O 5186   5.917   0.939   1.810  0.1586  0.0015  0.0374
 1556WAT     H1 5187   5.916   0.846   1.786  2.3518  0.3121 -1.5220
 1556WAT     H2 5188   5.969   0.941   1.890 -0.6784 -0.1775  0.6045
 1557WAT      O 5189   6.224   4.989   2.971 -0.0828  0.0844 -0.6955
 1557WAT     H1 5190   6.265   5.004   2.885  0.2161 -2.0776 -0.9892
 1557WAT     H2 5191   6.132   5.011   2.958  0.2685  1.4656 -1.0471
 1558WAT      O 5192   5.690   5.752   3.084 -0.2537 -0.2970  0.1560
 1558WAT     H1 5193   5.643   5.834   3.066 -0.9579 -0.3976  1.4430
 1558WAT     H2 5194   5.695   5.709   2.999 -1.0094  0.4983 -0.3113
 1559WAT      O 5195   6.238   0.308   3.258 -0.4841  0.0144  0.0277
 1559WAT     H1 5196   6.146   0.308   3.234 -0.7072 -0.5893  0.8187
 1559WAT     H2 5197   6.240   0.267   3.345  0.5255  0.0229  0.0239
 1560WAT      O 5198   6.751   2.513   2.708 -0.0537 -0.0608 -0.1957
 1560WAT     H1 5199   6.764   2.606   2.728  1.7756 -0.1398 -0.7648
 1560WAT     H2 5200   6.829   2.489   2.657 -0.9477 -1.6833 -0.8621
 1561WAT      O 5201   5.927   2.323   2.708 -1.0103 -0.1967  0.3675
 1561WAT     H1 5202   5.857   2.379   2.673 -0.1701  0.6337 -0.0134
 1561WAT     H2 5203   6.007   2.359   2.672 -0.3435 -0.9658  1.0399
 1562WAT      O 5204   6.135   5.471   3.095  0.1414  0.6352  0.2497
 1562WAT     H1 5205   6.129   5.502   3.186 -0.7257  0.0807  0.3956
 1562WAT     H2 5206   6.082   5.533   3.045  1.1073  1.2970  0.0049
 1563WAT      O 5207   5.951   1.129   3.174  0.2074 -0.3575  0.2314
 1563WAT     H1 5208   5.889   1.060   3.195  1.9141 -1.4471  2.0595
 1563WAT     H2 5209   5.939   1.195   3.243  1.3311 -0.7958  0.8744
 1564WAT      O 5210   7.352   0.189   3.892 -0.2252 -0.4936  0.0263
 1564WAT     H1 5211   7.313   0.275   3.910 -1.6897 -0.9953 -0.5701
 1564WAT     H2 5212   7.443   0.198   3.918 -0.1226  1.5189 -0.8621
 1565WAT      O 5213   7.269   5.730   3.764  0.2924  0.0443  0.3868
 1565WAT     H1 5214   7.265   5.661   3.698 -0.5048  0.1203  0.3502
 1565WAT     H2 5215   7.319   5.692   3.836 -2.1504 -1.4808  1.4129
 1566WAT      O 5216   6.187   0.197   2.960 -0.5196  0.0948  0.2247
 1566WAT     H1 5217   6.114   0.222   3.017 -0.8031 -0.4888  0.1215
 1566WAT     H2 5218   6.265   0.221   3.011 -0.7435 -1.5255  1.4138
 1567WAT      O 5219   6.222   2.099   3.159  0.1147  0.2461 -0.2134
 1567WAT     H1 5220   6.198   2.160   3.089 -1.4200  1.2983  1.1714
 1567WAT     H2 5221   6.245   2.155   3.233 -0.5696 -0.8205  0.8446
 1568WAT      O 5222   5.331   3.070   3.395  0.5332 -0.0239  0.2634
 1568WAT     H1 5223   5.307   3.163   3.394  0.2618 -0.0919  0.2903
 1568WAT     H2 5224   5.304   3.039   3.481  2.7346  0.4035  1.1606
 1569WAT      O 5225   4.584   5.363   3.499 -0.4379 -0.1820 -0.7170
 1569WAT     H1 5226   4.503   5.408   3.524  0.3330  1.0296 -0.2926
 1569WAT     H2 5227   4.639   5.367   3.578 -0.8458 -3.1728 -0.1692
 1570WAT      O 5228   0.490   0.984   1.943 -0.2418  0.1448 -0.0396
 1570WAT     H1 5229   0.521   0.915   1.885  0.2960  0.3708 -0.0274
 1570WAT     H2 5230   0.536   1.063   1.914  0.9789  0.0377  1.4230
 1571WAT      O 5231   5.027   2.658   1.633 -0.3416 -0.2211  0.0184
 1571WAT     H1 5232   4.979   2.582   1.602 -1.5474  0.2054  0.7810
 1571WAT     H2 5233   4.964   2.708   1.685 -0.3600  2.6372 -2.4504
 1572WAT      O 5234   6.807   0.853   3.777 -0.0431 -0.4523  0.6080
 1572WAT     H1 5235   6.896   0.868   3.744  0.9340 -1.7449  2.4814
 1572WAT     H2 5236   6.766   0.798   3.710 -0.0770  1.5034 -1.0975
 1573WAT      O 5237   7.299   1.478   3.612  0.0828  0.5743 -0.4880
 1573WAT     H1 5238   7.227   1.522   3.658  0.8521  1.2718  0.0918
 1573WAT     H2 5239   7.373   1.539   3.620  0.8016 -0.2257 -0.8743
 1574WAT      O 5240   5.037   4.881   3.125 -0.4779  0.5344 -0.8869
 1574WAT     H1 5241   5.041   4.976   3.114 -0.7063  0.6062 -0.3759
 1574WAT     H2 5242   4.955   4.866   3.171  0.6989  0.3293  1.3040
 1575WAT      O 5243   1.076   1.212   3.340 -0.3729  0.3574 -0.4304
 1575WAT     H1 5244   1.059   1.249   3.427 -0.5544  2.3247 -1.2445
 1575WAT     H2 5245   1.168   1.236   3.322  0.0191 -1.0272 -0.3367
 1576WAT      O 5246   0.548   5.071   3.865  0.4674 -0.0524  0.1555
 1576WAT     H1 5247   0.498   5.054   3.786  0.3665 -0.1458  0.2399
 1576WAT     H2 5248   0.496   5.135   3.914  1.4712  1.5759 -0.7866
 1577WAT      O 5249   5.939   0.665   3.251 -0.1410  0.4946  0.2304
 1577WAT     H1 5250   5.889   0.616   3.317 -0.3038 -1.3785 -1.2126
 1577WAT     H2 5251   6.016   0.696   3.298 -0.0149 -1.1909  1.2182
 1578WAT      O 5252   5.478   1.895   4.138  0.2330  0.3317  0.2499
 1578WAT     H1 5253   5.562   1.865   4.103 -0.4337 -1.3661  0.0046
 1578WAT     H2 5254   5.417   1.883   4.066 -0.6990 -0.9093  1.2106
 1579WAT      O 5255   6.819   0.619   2.211  0.2169  0.3725  0.1171
 1579WAT     H1 5256   6.774   0.606   2.294 -1.0705  1.4730 -0.3644
 1579WAT     H2 5257   6.890   0.679   2.231 -0.9921  1.8432  0.1981
 1580WAT      O 5258   4.946   0.775   3.676 -0.2916  0.6021  0.0101
 1580WAT     H1 5259   4.960   0.790   3.770  0.7052 -0.5856  0.0834
 1580WAT     H2 5260   5.020   0.820   3.634 -0.6535  1.0040 -0.2030
 1581WAT      O 5261   6.819   1.422   2.841 -0.0188  0.5039 -0.8595
 1581WAT     H1 5262   6.759   1.492   2.814 -0.1485  1.5507  1.8503
 1581WAT     H2 5263   6.789   1.345   2.793 -1.3907  1.7647 -2.1187
 1582WAT      O 5264   4.882   5.415   3.986  0.0977 -0.0112  0.0691
 1582WAT     H1 5265   4.977   5.424   3.979  0.0073  0.3102 -0.9261
 1582WAT     H2 5266   4.855   5.486   4.045  0.3617  0.6582 -0.5974
 1583WAT      O 5267   5.734   2.108   4.349 -0.1678  0.4838 -0.9582
 1583WAT     H1 5268   5.713   2.106   4.255 -1.1973  1.5684 -0.7773
 1583WAT     H2 5269   5.694   2.189   4.380 -0.7758 -0.4102  0.6555
 1584WAT      O 5270   5.288   1.133   2.051  0.0425 -0.7040 -0.6765
 1584WAT     H1 5271   5.212   1.135   2.109 -0.6614 -0.7558 -1.5675
 1584WAT     H2 5272   5.363   1.125   2.109 -0.6848 -1.3691  0.1972
 1585WAT      O 5273   4.435   2.459   5.037  0.4696 -0.5613 -0.2884
 1585WAT     H1 5274   4.472   2.483   4.952  1.0057 -0.1431  0.0490
 1585WAT     H2 5275   4.508   2.471   5.098 -0.2713  0.4856  0.4297
 1586WAT      O 5276   6.714   0.540   3.381 -0.3320  0.4214  0.3156
 1586WAT     H1 5277   6.674   0.453   3.371  0.2275  0.0909  0.8582
 1586WAT     H2 5278   6.640   0.598   3.398 -0.8779  0.3316 -1.5736
 1587WAT      O 5279   5.168   1.840   0.057 -0.3261  0.2087  0.4768
 1587WAT     H1 5280   5.219   1.914   0.023 -1.5297  1.4927  1.3404
 1587WAT     H2 5281   5.233   1.773   0.076  0.8980  1.2944  0.2905
 1588WAT      O 5282   0.111   1.890   3.458 -0.1889 -0.1758 -0.7811
 1588WAT     H1 5283   0.064   1.855   3.382 -0.7151  2.0046 -1.5428
 1588WAT     H2 5284   0.200   1.906   3.426 -0.1778 -0.0783 -0.7025
 1589WAT      O 5285   5.398   1.518   2.604  0.3604 -0.5475 -0.0399
 1589WAT     H1 5286   5.323   1.567   2.571 -0.1433 -0.9483  0.4838
 1589WAT     H2 5287   5.382   1.428   2.577  1.6393 -0.3520 -1.6181
 1590WAT      O 5288   6.096   2.194   5.069 -0.0222  0.0061 -0.0897
 1590WAT     H1 5289   6.125   2.104   5.055  1.8712  0.8815 -2.3371
 1590WAT     H2 5290   6.095   2.234   4.982 -3.2648  1.5276  0.5009
 1591WAT      O 5291   6.227   4.493   2.296 -0.4061 -0.2618 -0.5534
 1591WAT     H1 5292   6.184   4.475   2.379 -0.4930  4.2729  0.6479
 1591WAT     H2 5293   6.185   4.434   2.233 -2.9238 -1.3038  1.9329
 1592WAT      O 5294   5.977   3.924   1.262 -0.4328 -0.1278 -0.1963
 1592WAT     H1 5295   5.952   3.939   1.353 -1.8723 -0.8079 -0.4522
 1592WAT     H2 5296   5.895   3.899   1.218  0.2502  0.0689 -1.6527
 1593WAT      O 5297   6.399   1.867   2.163  0.4508 -0.2588  0.0343
 1593WAT     H1 5298   6.383   1.815   2.084 -1.6027  1.6770 -0.9436
 1593WAT     H2 5299   6.344   1.826   2.229 -1.6055  0.8588 -0.8806
 1594WAT      O 5300   6.347   1.359   4.380 -0.5115  0.3237  0.3034
 1594WAT     H1 5301   6.417   1.331   4.320 -0.4226  0.3632  0.3890
 1594WAT     H2 5302   6.284   1.287   4.378 -1.3047  1.0144 -1.0940
 1595WAT      O 5303   4.954   5.685   3.684  0.8696  0.6624 -0.2870
 1595WAT     H1 5304   4.862   5.704   3.666  0.8660  1.9442  0.9294
 1595WAT     H2 5305   4.991   5.661   3.599 -0.2906  1.4059 -1.0197
 1596WAT      O 5306   4.105   4.743   3.179  0.4957 -0.0901 -0.3891
 1596WAT     H1 5307   4.188   4.700   3.199  0.8156  0.9832  0.6698
 1596WAT     H2 5308   4.061   4.751   3.263 -0.1789  0.3814 -0.7774
 1597WAT      O 5309   4.779   5.987   1.987  0.2879  0.0710  0.2192
 1597WAT     H1 5310   4.685   5.975   1.980  0.1123 -1.4421  3.4276
 1597WAT     H2 5311   4.790   6.057   2.051  1.2805 -0.9740  1.2484
 1598WAT      O 5312   6.197   5.935   2.706 -0.1125 -0.2211  0.6451
 1598WAT     H1 5313   6.163   5.982   2.781 -1.1538 -1.5514  1.0298
 1598WAT     H2 5314   6.291   5.928   2.723 -0.5233 -1.7857  2.5888
 1599WAT      O 5315   7.309   5.267   2.221  0.6254  0.5706 -0.6712
 1599WAT     H1 5316   7.370   5.273   2.147 -0.0146  0.2158 -1.2517
 1599WAT     H2 5317   7.245   5.336   2.204  1.2109  1.3746  0.2856
 1600WAT      O 5318   6.037   0.598   1.967 -0.0847  0.1505  0.1500
 1600WAT     H1 5319   6.066   0.522   1.918 -0.3063 -2.0195  3.1239
 1600WAT     H2 5320   5.956   0.570   2.010 -0.9376  2.5596  0.2963
 1601WAT      O 5321   4.370   0.762   4.963 -0.3920 -0.0810 -0.7938
 1601WAT     H1 5322   4.392   0.778   5.054 -0.8710  0.5153 -0.7754
 1601WAT     H2 5323   4.316   0.682   4.965 -0.4852 -0.0121 -0.5484
 1602WAT      O 5324   6.923   5.015   2.525 -0.2047  0.0671  0.2712
 1602WAT     H1 5325   6.874   4.953   2.578 -1.7509  2.8268  2.3707
 1602WAT     H2 5326   6.984   5.056   2.587 -0.7310  2.0776 -0.4778
 1603WAT      O 5327   2.637   1.201   0.283  0.4341 -0.3044  0.3371
 1603WAT     H1 5328   2.629   1.105   0.282 -2.6502 -0.1494 -0.7461
 1603WAT     H2 5329   2.678   1.221   0.367  0.4703 -2.5457  0.9165
 1604WAT      O 5330   4.884   4.369   2.312 -0.1827  0.0420  0.0659
 1604WAT     H1 5331   4.907   4.461   2.324 -0.6659 -0.0901  2.6096
 1604WAT     H2 5332   4.788   4.369   2.314 -0.2769 -0.3079 -2.2441
 1605WAT      O 5333   1.734   5.831   1.805 -0.0645  0.1887  0.2263
 1605WAT     H1 5334   1.723   5.861   1.715 -0.0125 -1.1521 -0.2585
 1605WAT     H2 5335   1.751   5.737   1.796  0.4678  0.1406  1.6097
 1606WAT      O 5336   4.564   5.294   1.979  0.0034 -0.1436  0.0617
 1606WAT     H1 5337   4.534   5.380   2.009 -0.5940 -0.0056 -0.8806
 1606WAT     H2 5338   4.659   5.297   1.987 -0.1294 -0.1191  1.9010
 1607WAT      O 5339   5.686   5.627   1.985  0.0318  0.5708 -0.3732
 1607WAT     H1 5340   5.767   5.676   1.999 -0.3754  1.4155 -0.9584
 1607WAT     H2 5341   5.715   5.541   1.954  0.7475  0.3988  0.7202
 1608WAT      O 5342   5.505   5.310   4.018  0.1410 -0.9995  0.0665
 1608WAT     H1 5343   5.488   5.404   4.023 -0.6171 -1.1310  0.0492
 1608WAT     H2 5344   5.431   5.275   3.968  0.1061 -1.6850  0.5882
 1609WAT      O 5345   4.868   5.624   4.197 -0.0175 -0.6794  0.2637
 1609WAT     H1 5346   4.933   5.594   4.261  1.0584 -0.0527 -0.5050
 1609WAT     H2 5347   4.919   5.672   4.132 -0.8681 -2.4628 -1.8459
 1610WAT      O 5348   6.073   0.887   2.059  0.1615 -0.1559 -0.1401
 1610WAT     H1 5349   6.005   0.917   2.119 -0.5245 -0.5146 -0.7173
 1610WAT     H2 5350   6.051   0.795   2.043  0.4487 -0.1153 -0.7862
 1611WAT      O 5351   6.606   1.590   2.781 -0.1437  0.3092 -0.2451
 1611WAT     H1 5352   6.553   1.603   2.702 -0.8221 -0.4192  0.0737
 1611WAT     H2 5353   6.542   1.589   2.852  0.3917  0.2481  0.2361
 1612WAT      O 5354   5.735   5.780   2.337 -0.2367 -0.2047  0.0084
 1612WAT     H1 5355   5.743   5.687   2.359  1.4194 -0.9508 -3.0875
 1612WAT     H2 5356   5.825   5.808   2.320 -0.8445  1.5756 -0.5311
 1613WAT      O 5357   6.042   0.221   2.223  0.8444  0.6097  0.2507
 1613WAT     H1 5358   6.001   0.182   2.146  3.1554 -0.8292 -0.3491
 1613WAT     H2 5359   5.989   0.190   2.297 -1.5522  2.1980 -0.6615
 1614WAT      O 5360   5.070   5.889   2.544 -0.0807 -0.6420  0.3432
 1614WAT     H1 5361   5.109   5.816   2.592  1.4868  1.4326  2.4315
 1614WAT     H2 5362   5.019   5.937   2.610 -1.2788  0.0627 -1.0245
 1615WAT      O 5363   6.092   5.525   1.940  0.4385 -0.0559 -0.1133
 1615WAT     H1 5364   6.158   5.523   2.009  0.2622  0.6581  0.0923
 1615WAT     H2 5365   6.133   5.575   1.869 -0.6947  2.6026  0.9484
 1616WAT      O 5366   4.906   0.086   2.615 -0.2805 -0.0543 -0.0634
 1616WAT     H1 5367   4.956   0.103   2.535 -1.7316 -0.0458 -1.0065
 1616WAT     H2 5368   4.874  -0.003   2.605  0.4013 -0.4407  1.0266
 1617WAT      O 5369   6.689   1.256   3.381 -0.8143  1.2882  0.0387
 1617WAT     H1 5370   6.752   1.323   3.356  1.6088 -0.1190  1.9659
 1617WAT     H2 5371   6.615   1.270   3.322  1.4278  2.7749 -2.6704
 1618WAT      O 5372   4.857   0.894   1.458  0.4814  0.6197  0.3966
 1618WAT     H1 5373   4.918   0.823   1.479 -1.0562 -0.5967  0.9822
 1618WAT     H2 5374   4.880   0.921   1.370 -0.2931 -2.1934 -0.7732
 1619WAT      O 5375   6.027   1.738   1.800 -0.1445  0.4452 -0.1085
 1619WAT     H1 5376   6.062   1.690   1.875 -0.2649 -0.7542 -0.7990
 1619WAT     H2 5377   6.038   1.830   1.823  0.5975  0.0899  1.0158
 1620WAT      O 5378   0.110   0.908   2.236 -0.1358 -0.1624  0.0356
 1620WAT     H1 5379   0.194   0.894   2.191  0.9807  1.0048  1.6169
 1620WAT     H2 5380   0.135   0.952   2.317 -2.2238 -0.6338  0.9820
 1621WAT      O 5381   6.608   5.199   2.628 -0.1387  0.1233  0.6110
 1621WAT     H1 5382   6.536   5.176   2.569 -0.0162 -0.6266  0.7463
 1621WAT     H2 5383   6.633   5.287   2.602 -0.6875  0.1442  0.1418
 1622WAT      O 5384   6.271   5.383   3.551  0.0082 -0.1046  0.1753
 1622WAT     H1 5385   6.216   5.305   3.565 -0.2630 -0.1486 -1.0317
 1622WAT     H2 5386   6.258   5.435   3.630  0.9514 -1.7179  1.4613
 1623WAT      O 5387   5.654   0.264   3.033  0.3971 -0.5216  0.0242
 1623WAT     H1 5388   5.714   0.334   3.006 -1.2266  0.3880 -1.3723
 1623WAT     H2 5389   5.594   0.306   3.094  1.6672 -1.6523  2.1479
 1624WAT      O 5390   4.595   6.089   3.354  0.0104 -0.8309 -0.1749
 1624WAT     H1 5391   4.641   6.039   3.288  0.6414 -1.0095  0.3956
 1624WAT     H2 5392   4.533   6.027   3.393 -0.1082 -0.8212 -0.3467
 1625WAT      O 5393   7.138   4.585   1.881 -0.5851 -0.2276  0.0319
 1625WAT     H1 5394   7.152   4.670   1.839  1.9454  0.0815  1.2823
 1625WAT     H2 5395   7.181   4.594   1.966 -0.9994 -2.5069  0.5363
 1626WAT      O 5396   5.319   5.119   2.990 -0.3699  0.0021  0.7201
 1626WAT     H1 5397   5.358   5.031   2.984  2.5292  1.3019 -3.2094
 1626WAT     H2 5398   5.340   5.148   3.079  2.3251 -1.7569  0.7616
 1627WAT      O 5399   5.904   5.088   0.990  0.4013  0.7439 -0.6538
 1627WAT     H1 5400   5.808   5.087   0.994  0.4452  1.0636  2.1174
 1627WAT     H2 5401   5.923   5.120   0.901 -2.0124 -0.3254 -1.6581
 1628WAT      O 5402   2.824   5.947   2.496  0.1442 -0.1169 -0.5552
 1628WAT     H1 5403   2.822   6.023   2.554  0.0769  0.0676 -0.7982
 1628WAT     H2 5404   2.905   5.901   2.518 -0.6387 -0.9371  0.8231
 1629WAT      O 5405   5.444   5.315   2.566 -0.3049 -0.3731  0.4611
 1629WAT     H1 5406   5.382   5.248   2.535 -0.5583 -0.1959  0.5795
 1629WAT     H2 5407   5.391   5.394   2.575 -0.0616 -0.2203  0.5727
 1630WAT      O 5408   5.758   4.651   2.203  0.1143 -0.1466  0.4980
 1630WAT     H1 5409   5.695   4.582   2.184 -0.7558 -0.0082  2.5805
 1630WAT     H2 5410   5.704   4.728   2.222  1.0192  0.7107 -0.2967
 1631WAT      O 5411   0.628   1.065   2.539 -0.9282 -0.3538 -0.1848
 1631WAT     H1 5412   0.588   1.138   2.587  1.2968  1.1841 -0.5318
 1631WAT     H2 5413   0.643   0.998   2.606  0.4061  1.0215  0.9739
 1632WAT      O 5414   5.179   5.674   2.265 -0.3427  0.1800 -0.4223
 1632WAT     H1 5415   5.234   5.621   2.323  0.6789 -0.3029 -1.7640
 1632WAT     H2 5416   5.101   5.693   2.316 -0.5915 -2.3277  0.2555
 1633WAT      O 5417   3.222   5.074   5.895 -0.3972  0.2534  1.0273
 1633WAT     H1 5418   3.188   5.040   5.977  2.0705 -0.4616  1.8391
 1633WAT     H2 5419   3.312   5.100   5.914  0.6600 -0.9909 -1.6597
 1634WAT      O 5420   6.858   4.165   1.194 -0.1688  0.2081  0.1472
 1634WAT     H1 5421   6.819   4.246   1.225  1.5401  1.6120 -1.1684
 1634WAT     H2 5422   6.919   4.140   1.264  0.7351  1.1668 -0.2686
 1635WAT      O 5423   5.933   5.772   2.004 -0.5752 -0.1434 -0.0974
 1635WAT     H1 5424   5.983   5.712   1.949 -1.6185 -0.3064 -0.8921
 1635WAT     H2 5425   5.965   5.859   1.981  1.5127 -0.3806  1.6272
 1636WAT      O 5426   1.177   2.753   2.501  0.3282 -0.2683  0.2957
 1636WAT     H1 5427   1.214   2.672   2.468  0.5662  0.1486 -0.4983
 1636WAT     H2 5428   1.092   2.760   2.456  1.2450  0.9893 -1.3574
 1637WAT      O 5429   1.841   5.058   2.647  0.2781  0.0955 -0.0785
 1637WAT     H1 5430   1.818   4.993   2.582 -1.0210 -0.6509  1.0661
 1637WAT     H2 5431   1.874   5.133   2.597 -0.4406 -0.5491 -1.5510
 1638WAT      O 5432   6.336   6.103   2.280  0.3082  0.3789  0.7791
 1638WAT     H1 5433   6.323   6.008   2.285  1.8186  0.1484  0.5856
 1638WAT     H2 5434   6.289   6.137   2.356  0.5834 -0.6248  1.4151
 1639WAT      O 5435   4.063   4.863   0.464 -0.3449 -0.2910  0.0068
 1639WAT     H1 5436   4.101   4.815   0.538 -1.4487 -1.1517  0.0304
 1639WAT     H2 5437   3.969   4.859   0.478 -0.5132  0.8238 -0.6708
 1640WAT      O 5438   3.500   1.190   1.124  0.3860 -0.3684  0.3322
 1640WAT     H1 5439   3.463   1.111   1.084  1.3984 -2.3080  2.9353
 1640WAT     H2 5440   3.593   1.172   1.131  0.2754 -0.2593  3.5145
 1641WAT      O 5441   5.219   2.026   4.503 -0.6400 -0.2286  0.3298
 1641WAT     H1 5442   5.229   1.989   4.590  0.1074  0.6645  0.6473
 1641WAT     H2 5443   5.191   1.953   4.448 -0.0179 -1.0525  1.0851
 1642WAT      O 5444   0.302   6.016   2.569 -0.0404 -0.1485  0.1398
 1642WAT     H1 5445   0.372   5.980   2.514  0.2988  1.1142 -0.2943
 1642WAT     H2 5446   0.235   5.947   2.571 -0.7796  0.3229 -3.1818
 1643WAT      O 5447   6.369   2.205   2.679 -0.1407 -0.0949 -0.0737
 1643WAT     H1 5448   6.417   2.206   2.596  0.4035 -1.3103  0.1895
 1643WAT     H2 5449   6.437   2.221   2.745 -0.7302  1.8929  0.1138
 1644WAT      O 5450   5.574   5.043   1.056 -0.1624  0.3766 -0.2199
 1644WAT     H1 5451   5.636   4.991   1.108  1.0137  1.2240 -0.7363
 1644WAT     H2 5452   5.524   4.978   1.006 -0.0115 -0.3434  0.5476
 1645WAT      O 5453   1.412   2.482   1.788 -0.3997  0.0213 -0.3618
 1645WAT     H1 5454   1.397   2.492   1.882 -1.0381  1.1390 -0.5540
 1645WAT     H2 5455   1.479   2.414   1.781 -0.6699 -0.4038  0.8742
 1646WAT      O 5456   6.540   1.933   2.917  0.4117  0.2078 -0.2746
 1646WAT     H1 5457   6.543   2.027   2.900 -0.0219  0.3998  0.6711
 1646WAT     H2 5458   6.454   1.918   2.955  0.1152 -0.7305 -1.2625
 1647WAT      O 5459   6.561   0.594   2.026 -0.0590 -0.3136 -0.4198
 1647WAT     H1 5460   6.654   0.618   2.025 -0.0594 -0.2767  0.0428
 1647WAT     H2 5461   6.519   0.663   2.077 -0.4988  0.1904 -1.4314
 1648WAT      O 5462   3.690   0.471   3.289 -0.8693  0.0171  0.2411
 1648WAT     H1 5463   3.625   0.452   3.222  0.6056 -1.6899 -0.7719
 1648WAT     H2 5464   3.666   0.414   3.362 -0.2962 -0.9103 -0.2842
 1649WAT      O 5465   5.526   5.294   2.816 -0.5722  0.2532  0.8170
 1649WAT     H1 5466   5.540   5.271   2.724  0.9803  2.9112  0.2596
 1649WAT     H2 5467   5.432   5.312   2.822 -0.5012  1.3616 -0.6645
 1650WAT      O 5468   6.162   1.554   1.994  0.0740  0.0462  0.8292
 1650WAT     H1 5469   6.195   1.466   1.975  1.2118  0.7305 -0.5959
 1650WAT     H2 5470   6.146   1.554   2.088 -0.7607 -1.9286  0.7486
 1651WAT      O 5471   5.263   5.629   2.015  0.2638  0.0841 -0.5440
 1651WAT     H1 5472   5.243   5.684   2.090 -0.9915  2.0241 -2.1893
 1651WAT     H2 5473   5.276   5.542   2.052 -1.7392  0.6516  1.7669
 1652WAT      O 5474   6.852   0.373   3.031  0.8380 -0.3383 -0.1702
 1652WAT     H1 5475   6.913   0.300   3.026 -0.4662 -1.5567  0.9904
 1652WAT     H2 5476   6.792   0.359   2.958 -0.1127 -1.1154  0.7389
 1653WAT      O 5477   0.472   0.949   3.523 -0.9674  0.0695  0.1151
 1653WAT     H1 5478   0.405   1.014   3.542 -0.5185  0.4180  0.4969
 1653WAT     H2 5479   0.539   0.997   3.475  0.0003  0.1995  1.5698
 1654WAT      O 5480   6.933   1.398   3.606  0.2882  0.9770  0.3780
 1654WAT     H1 5481   6.922   1.442   3.690 -0.3098  1.3949  0.0849
 1654WAT     H2 5482   6.935   1.304   3.628  0.5378  1.0994  0.8948
 1655WAT      O 5483   5.027   5.174   3.094 -0.3481 -0.2497  0.4659
 1655WAT     H1 5484   5.090   5.201   3.161  0.1919 -0.6190  0.1152
 1655WAT     H2 5485   5.080   5.155   3.017 -0.8672 -0.7648  0.2252
 1656WAT      O 5486   3.377   1.343   5.074  0.0717 -0.0627  0.0280
 1656WAT     H1 5487   3.448   1.406   5.066 -1.3925  1.7028  0.1370
 1656WAT     H2 5488   3.360   1.338   5.168  0.3556 -0.8621  0.0456
 1657WAT      O 5489   5.028   0.187   2.368 -0.1644 -0.2715  0.0332
 1657WAT     H1 5490   4.993   0.254   2.309 -0.8027 -0.5830  0.0487
 1657WAT     H2 5491   5.106   0.228   2.407 -0.6904  0.5577  0.2402
 1658WAT      O 5492   5.075   5.578   3.445 -0.3715  0.7614  0.7496
 1658WAT     H1 5493   5.167   5.605   3.434  0.6203 -2.5529 -0.3137
 1658WAT     H2 5494   5.032   5.608   3.365 -0.2452  2.1855  1.1774
 1659WAT      O 5495   6.924   3.420   3.364 -0.8866 -0.4167 -0.0692
 1659WAT     H1 5496   6.906   3.369   3.442  0.4128 -0.9532 -0.0947
 1659WAT     H2 5497   6.839   3.428   3.320 -1.7147  0.2345  1.5641
 1660WAT      O 5498   5.273   5.158   3.280  0.1051  0.3042 -0.7937
 1660WAT     H1 5499   5.357   5.124   3.309  0.2872  0.1527 -1.4783
 1660WAT     H2 5500   5.211   5.128   3.347  0.4179 -0.5488 -0.8648
 1661WAT      O 5501   5.170   3.865   3.290 -0.2127 -0.9132 -0.2755
 1661WAT     H1 5502   5.218   3.856   3.208  0.0445 -0.3636 -0.1883
 1661WAT     H2 5503   5.100   3.926   3.270  0.0920 -0.4616  0.0155
 1662WAT      O 5504   6.136   5.813   3.673  0.6586  0.9025  0.1030
 1662WAT     H1 5505   6.105   5.762   3.748 -0.9881 -0.3887 -1.3647
 1662WAT     H2 5506   6.167   5.747   3.611  0.3751  1.8184 -1.0391
 1663WAT      O 5507   5.695   0.748   2.253 -0.1233 -0.5518 -0.2538
 1663WAT     H1 5508   5.690   0.841   2.229 -4.1788 -0.4964  0.1146
 1663WAT     H2 5509   5.687   0.748   2.349 -1.7914 -1.2657 -0.3636
 1664WAT      O 5510   4.253   4.524   2.438  0.0357  0.2919  0.6669
 1664WAT     H1 5511   4.265   4.495   2.348 -1.6667  0.0755  0.4749
 1664WAT     H2 5512   4.329   4.489   2.484  0.2292 -0.7950 -0.4157
 1665WAT      O 5513   5.677   2.369   4.352  0.8418  0.7106  0.4236
 1665WAT     H1 5514   5.757   2.389   4.304  1.2129 -0.3907  0.5505
 1665WAT     H2 5515   5.609   2.421   4.309  1.1487 -0.2777 -1.3649
 1666WAT      O 5516   6.033   0.659   2.978  0.2223 -0.4575 -0.1945
 1666WAT     H1 5517   6.127   0.646   2.968  0.1589 -0.5043 -0.7932
 1666WAT     H2 5518   6.018   0.657   3.072  0.7898 -0.6691 -0.1058
 1667WAT      O 5519   5.626   3.178   1.651  0.2638  0.6632  0.4699
 1667WAT     H1 5520   5.675   3.134   1.720  0.8904  0.9854  0.2373
 1667WAT     H2 5521   5.676   3.160   1.571  0.8001  2.1760  0.4343
 1668WAT      O 5522   6.548   0.197   3.587  0.0670  0.7092  0.1151
 1668WAT     H1 5523   6.599   0.123   3.552 -2.7564 -1.4474  0.1206
 1668WAT     H2 5524   6.607   0.241   3.647  2.3768 -0.6584 -1.0073
 1669WAT      O 5525   4.585   1.948   3.989 -0.1664 -0.8546  0.3070
 1669WAT     H1 5526   4.567   2.041   3.976 -1.0453 -1.0870 -0.2089
 1669WAT     H2 5527   4.503   1.904   3.966  0.0396 -1.7147  1.1528
 1670WAT      O 5528   5.881   1.565   3.297  0.0225 -0.4031  0.2581
 1670WAT     H1 5529   5.833   1.629   3.351 -0.9095 -0.6955 -0.2012
 1670WAT     H2 5530   5.940   1.618   3.244  2.4394 -0.2186  2.9232
 1671WAT      O 5531   5.049   0.780   2.202 -0.3490 -0.5765  0.1979
 1671WAT     H1 5532   5.139   0.812   2.208 -0.4093 -0.5980  1.4113
 1671WAT     H2 5533   5.031   0.743   2.288 -1.3956 -0.9095 -0.1519
 1672WAT      O 5534   6.314   0.606   3.631  0.0979  0.3628  0.5827
 1672WAT     H1 5535   6.315   0.677   3.695 -1.7415  0.6753  0.3160
 1672WAT     H2 5536   6.312   0.526   3.684  0.9834  0.5220  0.8810
 1673WAT      O 5537   3.809   5.244   2.158 -0.3539 -0.7908  0.1435
 1673WAT     H1 5538   3.877   5.182   2.129  1.5368  1.7321 -1.1813
 1673WAT     H2 5539   3.753   5.256   2.081  0.0092  0.0385  0.0050
 1674WAT      O 5540   4.402   5.959   1.049  0.1728  0.5047 -0.4508
 1674WAT     H1 5541   4.340   5.975   1.120 -0.2062 -0.1147 -0.6360
 1674WAT     H2 5542   4.383   5.869   1.020  0.1597  0.8360 -1.4953
 1675WAT      O 5543   1.106   2.324   1.921  0.4396 -0.0720  0.0521
 1675WAT     H1 5544   1.071   2.406   1.886  0.1504 -0.4996 -0.6884
 1675WAT     H2 5545   1.028   2.271   1.940  0.6324 -0.8210 -1.0939
 1676WAT      O 5546   6.080   6.080   2.894 -0.1300 -0.6087 -0.4463
 1676WAT     H1 5547   6.119   6.168   2.896  1.2509 -1.1928  0.8211
 1676WAT     H2 5548   6.028   6.075   2.975  0.4158 -1.1919 -0.1197
 1677WAT      O 5549   5.078   5.076   2.819  0.2250 -0.0866  0.2639
 1677WAT     H1 5550   5.173   5.066   2.819  0.3454 -0.5096 -3.4841
 1677WAT     H2 5551   5.063   5.162   2.780 -0.8936 -0.5456 -0.3755
 1678WAT      O 5552   3.940   2.459   1.286  0.0729 -0.1773  0.4591
 1678WAT     H1 5553   3.996   2.416   1.222 -0.1238 -2.0249  1.4559
 1678WAT     H2 5554   3.978   2.547   1.297  1.5471 -0.6833 -0.3575
 1679WAT      O 5555   4.425   5.030   0.662 -0.0620  0.5901 -0.5331
 1679WAT     H1 5556   4.391   4.941   0.673 -0.6025  0.5074 -2.4870
 1679WAT     H2 5557   4.509   5.018   0.618  0.3664  1.0188  0.1535
 1680WAT      O 5558   5.070   1.488   1.856 -0.2154  0.4608  0.3138
 1680WAT     H1 5559   5.084   1.393   1.859 -4.2355 -0.3018  0.8196
 1680WAT     H2 5560   5.139   1.520   1.797  2.3161 -2.4553  1.3827
 1681WAT      O 5561   5.399   0.003   3.436  0.5044  0.0838 -0.3887
 1681WAT     H1 5562   5.432  -0.011   3.524 -0.7101 -0.8570 -0.0429
 1681WAT     H2 5563   5.433   0.088   3.410 -0.0592  0.9278  1.4526
 1682WAT      O 5564   0.795   2.302   0.117 -0.6474  0.5841 -0.8769
 1682WAT     H1 5565   0.766   2.373   0.175  0.1425  0.8459 -0.7901
 1682WAT     H2 5566   0.889   2.295   0.133 -0.7435 -0.6139 -0.7533
 1683WAT      O 5567   4.726   6.046   0.136 -0.0772 -0.5926 -0.2839
 1683WAT     H1 5568   4.815   6.064   0.165 -0.7389  0.0066  1.5915
 1683WAT     H2 5569   4.707   5.959   0.172 -0.1782 -0.8238 -0.8864
 1684WAT      O 5570   5.116   5.097   0.628 -0.2104  0.1965 -0.2925
 1684WAT     H1 5571   5.205   5.071   0.652 -0.1895 -0.8814 -1.4347
 1684WAT     H2 5572   5.125   5.184   0.591 -0.0399  1.2723  2.0996
 1685WAT      O 5573   6.498   5.837   3.080 -0.1507 -0.4035 -0.4756
 1685WAT     H1 5574   6.591   5.851   3.061  0.3842 -1.3735  1.2389
 1685WAT     H2 5575   6.493   5.839   3.175 -1.7266 -1.4033 -0.5107
 1686WAT      O 5576   3.917   1.451   1.188  0.4314 -0.0103 -0.0934
 1686WAT     H1 5577   3.922   1.355   1.190 -0.5270 -0.0816 -0.4765
 1686WAT     H2 5578   3.959   1.479   1.269 -0.2091 -0.8093  0.5340
 1687WAT      O 5579   6.235   1.859   2.860  0.0125 -0.2373 -0.1259
 1687WAT     H1 5580   6.170   1.796   2.826  0.0882 -1.0723  1.2157
 1687WAT     H2 5581   6.216   1.940   2.813 -1.8229 -0.5401  0.0163
 1688WAT      O 5582   6.279   0.743   2.693 -0.9560  0.1556 -0.7190
 1688WAT     H1 5583   6.283   0.756   2.598  0.9391  1.1918 -0.5403
 1688WAT     H2 5584   6.198   0.787   2.719 -1.9538 -0.8791 -1.9276
 1689WAT      O 5585   4.787   4.449   1.405 -0.0470  0.1313 -0.2972
 1689WAT     H1 5586   4.841   4.419   1.478 -0.4262  1.1526  0.4256
 1689WAT     H2 5587   4.819   4.400   1.330 -0.3696 -1.7764  0.7402
 1690WAT      O 5588   4.811   3.222   5.831  0.1311 -0.3018 -0.0588
 1690WAT     H1 5589   4.876   3.201   5.764 -1.2484 -0.6246 -1.3427
 1690WAT     H2 5590   4.832   3.312   5.857  0.6709 -0.1538 -0.9704
 1691WAT      O 5591   6.045   3.714   5.648  0.0957  0.1820 -0.5931
 1691WAT     H1 5592   5.972   3.733   5.707  1.8619 -0.5889  1.9940
 1691WAT     H2 5593   6.068   3.798   5.610 -0.4656  0.9122  0.6277
 1692WAT      O 5594   4.171   3.559   0.409  0.0319  0.1522 -0.2922
 1692WAT     H1 5595   4.130   3.620   0.470 -0.2111  0.9304 -1.2045
 1692WAT     H2 5596   4.194   3.482   0.462 -0.5622  0.6332  0.6705
 1693WAT      O 5597   4.813   2.643   1.272  0.2335  0.1063 -0.3142
 1693WAT     H1 5598   4.853   2.725   1.303  2.6062 -1.3622  0.8145
 1693WAT     H2 5599   4.719   2.657   1.283  0.5864  2.4509  0.3953
 1694WAT      O 5600   5.443   1.778   2.023  0.0486  0.4332 -0.1095
 1694WAT     H1 5601   5.504   1.846   1.996  1.6916 -0.1220  1.9465
 1694WAT     H2 5602   5.490   1.696   2.008 -1.3454 -0.2071 -1.1893
 1695WAT      O 5603   4.837   1.760   1.327  0.0117  0.0632  0.0757
 1695WAT     H1 5604   4.859   1.700   1.255  0.8159  0.1435  0.2498
 1695WAT     H2 5605   4.921   1.783   1.366 -0.2255  1.7951 -0.3697
 1696WAT      O 5606   3.519   6.003   1.140  0.1140 -0.2384  0.4108
 1696WAT     H1 5607   3.578   6.057   1.088  1.1399 -0.3991  1.3594
 1696WAT     H2 5608   3.542   6.024   1.231 -2.0781  0.5327  0.8456
 1697WAT      O 5609   5.327   4.827   2.265 -0.2044 -0.2585  0.6447
 1697WAT     H1 5610   5.256   4.888   2.244  1.4164  0.8308 -2.1076
 1697WAT     H2 5611   5.314   4.753   2.206 -0.0263 -0.8728  1.3612
 1698WAT      O 5612   6.397   3.700   1.289 -0.2014  0.4137  0.0906
 1698WAT     H1 5613   6.460   3.759   1.330 -0.9021  1.4407 -0.2576
 1698WAT     H2 5614   6.316   3.713   1.339  0.2878 -2.3247  1.8105
 1699WAT      O 5615   5.231   2.380   0.423  0.1788 -0.0659  0.2620
 1699WAT     H1 5616   5.322   2.399   0.399 -0.5407  1.7398 -1.3745
 1699WAT     H2 5617   5.210   2.445   0.490 -0.2877  0.4489 -0.3711
 1700WAT      O 5618   2.270   0.529   0.019 -0.0432 -0.1003 -0.3900
 1700WAT     H1 5619   2.333   0.482   0.074 -0.9020 -0.6305  0.1696
 1700WAT     H2 5620   2.231   0.460  -0.036 -0.1949  0.2132 -0.6768
 1701WAT      O 5621   3.477   5.482   2.093  0.6647 -0.4606  0.2597
 1701WAT     H1 5622   3.422   5.560   2.093  0.2506 -0.7461 -0.3583
 1701WAT     H2 5623   3.422   5.413   2.131  1.1468 -0.3833  1.1337
 1702WAT      O 5624   5.992   0.737   4.005  0.1918 -0.5286  0.3962
 1702WAT     H1 5625   5.930   0.678   3.962  1.2731 -0.6658 -1.0663
 1702WAT     H2 5626   6.077   0.714   3.966  1.2535 -0.6490  2.6468
 1703WAT      O 5627   5.817   6.063   3.687  0.2438  0.6755  0.0500
 1703WAT     H1 5628   5.774   6.097   3.766 -0.4215  0.1618 -0.0870
 1703WAT     H2 5629   5.792   5.971   3.684 -0.2950  0.8519 -1.1354
 1704WAT      O 5630   5.658   1.780   5.157 -0.3270  0.0038 -0.1092
 1704WAT     H1 5631   5.654   1.837   5.081  0.6392 -0.3097 -0.4081
 1704WAT     H2 5632   5.741   1.803   5.200  2.0021 -3.5560 -2.2099
 1705WAT      O 5633   3.943   1.277   0.794 -0.3064 -0.2255 -0.3672
 1705WAT     H1 5634   3.877   1.327   0.841  1.1358  1.1489  0.2778
 1705WAT     H2 5635   4.025   1.323   0.811  1.2842 -3.2066  0.9403
 1706WAT      O 5636   4.409   0.324   0.554 -0.2366 -0.0098 -0.6476
 1706WAT     H1 5637   4.441   0.266   0.624  1.2384  0.5540 -0.8114
 1706WAT     H2 5638   4.408   0.411   0.594 -1.8101 -0.0165 -0.6040
 1707WAT      O 5639   4.983   6.107   1.838  0.2719 -0.1144  0.2581
 1707WAT     H1 5640   4.912   6.052   1.871 -0.9353  1.7610  0.9097
 1707WAT     H2 5641   5.021   6.056   1.766  0.0816 -2.3595  1.6702
 1708WAT      O 5642   5.689   0.032   2.002 -0.1629  0.1333 -0.3750
 1708WAT     H1 5643   5.655   0.107   2.051 -1.3616 -0.3460 -0.4485
 1708WAT     H2 5644   5.660  -0.044   2.052  1.6435 -0.2963  0.0930
 1709WAT      O 5645   4.714   0.234   0.951  0.0989 -0.1718 -0.0370
 1709WAT     H1 5646   4.702   0.244   0.857  0.9800 -0.9366 -0.2491
 1709WAT     H2 5647   4.689   0.318   0.988 -2.7844 -0.6499 -0.6822
 1710WAT      O 5648   4.086   4.950   2.984 -0.4746  0.1145  0.1010
 1710WAT     H1 5649   4.103   4.872   3.036 -3.5372 -0.5658  0.2810
 1710WAT     H2 5650   4.117   5.022   3.038 -1.0242 -0.7699  1.6751
 1711WAT      O 5651   4.476   1.118   2.636 -0.1467  0.0438  0.3903
 1711WAT     H1 5652   4.455   1.025   2.640 -1.8935  0.3800 -0.0181
 1711WAT     H2 5653   4.544   1.125   2.569 -1.5702 -0.7150 -1.2032
 1712WAT      O 5654   4.315   5.116   1.966 -0.0622  0.1843  0.0177
 1712WAT     H1 5655   4.344   5.082   2.050  0.6105 -0.0332 -0.2916
 1712WAT     H2 5656   4.376   5.187   1.947 -0.1692  0.1887 -0.3146
 1713WAT      O 5657   4.735   2.148   2.398  0.3358 -0.9665 -0.2830
 1713WAT     H1 5658   4.774   2.067   2.366  0.5518 -1.3341  0.8885
 1713WAT     H2 5659   4.640   2.133   2.392  0.3657 -0.9205 -0.9908
 1714WAT      O 5660   5.951   3.235   2.011  0.1009  0.0481  0.4702
 1714WAT     H1 5661   6.029   3.291   2.017  1.5788 -1.8556 -0.1045
 1714WAT     H2 5662   5.965   3.167   2.076 -1.1840 -0.2526  0.4531
 1715WAT      O 5663   4.723   0.738   0.876 -0.0915  0.0299 -0.1311
 1715WAT     H1 5664   4.779   0.683   0.932  1.7656  0.9816 -0.9690
 1715WAT     H2 5665   4.645   0.754   0.929 -1.4148 -4.4241 -0.3032
 1716WAT      O 5666   3.786   0.286   4.712 -0.2441  0.3597  0.1707
 1716WAT     H1 5667   3.775   0.372   4.670 -0.5429  0.6838  0.9099
 1716WAT     H2 5668   3.862   0.296   4.768  2.3385 -1.0525 -2.7742
 1717WAT      O 5669   5.523   2.182   2.471 -0.4888  0.0801 -0.6010
 1717WAT     H1 5670   5.521   2.278   2.471 -0.0272  0.1015 -1.8254
 1717WAT     H2 5671   5.453   2.157   2.531  0.4624  1.1844  1.0481
 1718WAT      O 5672   6.650   2.277   0.424 -0.1242 -0.0611  0.1844
 1718WAT     H1 5673   6.635   2.292   0.330  0.0196 -1.3694 -0.0639
 1718WAT     H2 5674   6.738   2.239   0.428  0.5410  1.4776  1.0246
 1719WAT      O 5675   5.176   2.093   1.068  0.1366  0.2364 -0.2536
 1719WAT     H1 5676   5.240   2.108   0.999  0.5357  1.5433  0.3807
 1719WAT     H2 5677   5.110   2.160   1.055 -1.2463 -1.2006 -1.0038
 1720WAT      O 5678   5.266   2.080   0.777  0.1535 -0.1792  0.5510
 1720WAT     H1 5679   5.328   2.111   0.711  0.2226 -0.4088  0.5062
 1720WAT     H2 5680   5.191   2.049   0.727  0.0002  0.1015  0.6057
 1721WAT      O 5681   0.185   0.784   2.938 -0.1705 -0.3927  0.6770
 1721WAT     H1 5682   0.272   0.783   2.899 -0.0342  0.3330  0.9495
 1721WAT     H2 5683   0.188   0.718   3.007 -0.2260 -1.2514 -0.1219
 1722WAT      O 5684   5.843   0.055   2.622  0.2200 -0.1085  0.5779
 1722WAT     H1 5685   5.890  -0.028   2.615  0.5886  0.0890  0.6782
 1722WAT     H2 5686   5.826   0.066   2.716 -2.4443 -1.5002  0.3594
 1723WAT      O 5687   4.947   2.365   2.387  0.4454  0.1999 -0.4093
 1723WAT     H1 5688   4.917   2.441   2.339 -1.5291 -0.7108 -0.7214
 1723WAT     H2 5689   4.890   2.294   2.358  0.3551 -0.7847  1.9271
 1724WAT      O 5690   4.477   0.844   0.606 -0.2919 -0.0235  0.1233
 1724WAT     H1 5691   4.519   0.916   0.559  0.3763  1.4308  2.8005
 1724WAT     H2 5692   4.385   0.850   0.582  0.0347  0.5992 -1.0422
 1725WAT      O 5693   3.897   1.281   5.354 -0.2277 -0.2831  0.1351
 1725WAT     H1 5694   3.840   1.317   5.286 -1.0706 -1.0916  0.3986
 1725WAT     H2 5695   3.974   1.250   5.306 -0.2070  0.3767 -0.2805
 1726WAT      O 5696   5.946   1.254   1.900 -0.7556  0.6491  0.1746
 1726WAT     H1 5697   6.033   1.244   1.940 -0.8204 -0.8337  0.0033
 1726WAT     H2 5698   5.959   1.230   1.808 -0.9904  2.2240 -0.2946
 1727WAT      O 5699   4.857   3.501   4.820  0.1454 -0.0452  0.2451
 1727WAT     H1 5700   4.946   3.529   4.799 -0.4647  1.2745 -0.7375
 1727WAT     H2 5701   4.844   3.528   4.911  1.9077 -3.4360  1.6703
 1728WAT      O 5702   5.337   0.974   2.480 -0.5909  0.3139  0.3867
 1728WAT     H1 5703   5.389   0.939   2.552 -0.9268 -1.4337 -0.1588
 1728WAT     H2 5704   5.354   0.913   2.407 -1.7406  0.9314 -0.4232
 1729WAT      O 5705   5.310   2.264   1.536  0.4457 -0.6453 -0.0265
 1729WAT     H1 5706   5.232   2.285   1.587 -0.7668 -1.1374 -1.5908
 1729WAT     H2 5707   5.278   2.207   1.466  2.4075 -1.7618 -0.0815
 1730WAT      O 5708   6.613   0.919   2.017 -0.0001 -0.7259  0.3900
 1730WAT     H1 5709   6.704   0.930   1.989 -0.1562  0.7496  0.3973
 1730WAT     H2 5710   6.618   0.923   2.113 -0.0283 -1.1402  0.4128
 1731WAT      O 5711   4.642   1.328   1.218  0.2740 -0.6171  0.0100
 1731WAT     H1 5712   4.624   1.409   1.171  0.4829  1.1651  2.7887
 1731WAT     H2 5713   4.555   1.293   1.240  0.1698 -0.3562  0.0203
 1732WAT      O 5714   4.242   5.249   0.694 -0.2599  0.1778 -0.5682
 1732WAT     H1 5715   4.295   5.321   0.729 -0.3601 -0.2372  0.4631
 1732WAT     H2 5716   4.305   5.178   0.681 -0.7111 -0.7369  1.8412
 1733WAT      O 5717   6.472   5.963   1.927  0.9453  0.1164  0.1726
 1733WAT     H1 5718   6.555   6.010   1.921  0.9104  0.1077 -0.3768
 1733WAT     H2 5719   6.407   6.031   1.943  1.0523  0.1227  0.6059
 1734WAT      O 5720   5.539   3.378   0.082 -0.1383  0.2894  0.1883
 1734WAT     H1 5721   5.502   3.290   0.092 -0.8961  0.5027 -0.5797
 1734WAT     H2 5722   5.462   3.434   0.072  0.3841  0.7355 -1.5901
 1735WAT      O 5723   3.818   0.961   5.113  0.0639 -0.5953  0.3875
 1735WAT     H1 5724   3.754   1.022   5.075  2.3700  3.3525  2.2445
 1735WAT     H2 5725   3.776   0.931   5.194 -1.0367 -1.5008 -0.4739
 1736WAT      O 5726   6.001   1.845   2.125 -0.5343 -0.1901  0.1870
 1736WAT     H1 5727   6.014   1.750   2.129  1.4879  0.0558  0.2306
 1736WAT     H2 5728   5.934   1.862   2.192  0.3887 -1.3962  1.4866
 1737WAT      O 5729   6.311   3.853   1.623  0.0363  0.6918 -0.0193
 1737WAT     H1 5730   6.270   3.777   1.582  2.2793 -2.0680  2.4183
 1737WAT     H2 5731   6.370   3.888   1.556  0.5965 -1.1418 -0.5239
 1738WAT      O 5732   0.686   2.552   1.158 -0.6453 -0.3082 -0.2796
 1738WAT     H1 5733   0.730   2.529   1.241  1.6653 -0.8969 -1.5706
 1738WAT     H2 5734   0.689   2.647   1.156  0.0812 -0.3153 -0.0596
 1739WAT      O 5735   4.773   0.733   5.516 -0.4226  0.3881 -0.2819
 1739WAT     H1 5736   4.698   0.680   5.543  0.4317 -0.3218  0.7828
 1739WAT     H2 5737   4.758   0.818   5.555 -1.0380  0.4866 -0.7130
 1740WAT      O 5738   3.647   0.914   5.723 -0.2754  0.0531  0.3904
 1740WAT     H1 5739   3.686   0.859   5.791  3.2109 -0.0295 -1.4522
 1740WAT     H2 5740   3.588   0.854   5.676 -0.8733 -0.5058  1.7586
 1741WAT      O 5741   4.817   0.790   4.944  0.1607 -0.7460  0.3101
 1741WAT     H1 5742   4.851   0.872   4.907 -1.6487  0.7787  1.8037
 1741WAT     H2 5743   4.731   0.780   4.904  1.1331 -3.1425 -1.4362
 1742WAT      O 5744   0.399   3.999   0.881 -0.5979 -0.0633  0.2060
 1742WAT     H1 5745   0.373   3.908   0.871 -0.1470 -0.1581 -0.1755
 1742WAT     H2 5746   0.400   4.014   0.975  0.0708 -0.6785  0.3092
 1743WAT      O 5747   3.469   0.756   5.630  0.4530 -0.6187  0.4994
 1743WAT     H1 5748   3.404   0.826   5.636  0.2389 -0.6627 -0.9518
 1743WAT     H2 5749   3.422   0.677   5.659 -0.2466 -0.6892 -0.7444
 1744WAT      O 5750   4.017   0.993   4.758  0.1717 -0.2180  0.4791
 1744WAT     H1 5751   3.929   0.956   4.746  0.1834 -0.7033  1.7048
 1744WAT     H2 5752   4.017   1.025   4.848  1.8879 -2.0068  1.1749
 1745WAT      O 5753   6.355   3.682   5.097  0.4320 -0.1699  0.2515
 1745WAT     H1 5754   6.306   3.610   5.057  1.4935 -0.4140 -0.6620
 1745WAT     H2 5755   6.287   3.744   5.124 -0.5746 -1.9475  2.0571
 1746WAT      O 5756   3.904   0.321   0.565 -0.2326  0.2213 -0.1138
 1746WAT     H1 5757   3.913   0.317   0.469 -2.1935 -4.1546 -0.3288
 1746WAT     H2 5758   3.988   0.289   0.598 -0.5308 -1.1055 -0.5635
 1747WAT      O 5759   4.622   3.790   0.437  0.3500 -0.2333  0.0688
 1747WAT     H1 5760   4.543   3.769   0.389  0.2350  0.5997 -0.1199
 1747WAT     H2 5761   4.693   3.748   0.388  0.1509 -0.0172 -0.4037
 1748WAT      O 5762   4.080   5.249   4.935 -0.2795  0.5342 -0.2557
 1748WAT     H1 5763   4.031   5.272   5.014 -0.2438  0.5750 -0.2457
 1748WAT     H2 5764   4.169   5.280   4.952  0.1683 -1.0163  0.4266
 1749WAT      O 5765   3.524   0.263   4.550  0.2702  0.0812 -0.3311
 1749WAT     H1 5766   3.586   0.273   4.623  0.5798 -2.3577 -0.1823
 1749WAT     H2 5767   3.445   0.228   4.592 -0.7271  1.7233 -0.7496
 1750WAT      O 5768   5.338   5.540   0.951 -0.0380  0.3788  0.6663
 1750WAT     H1 5769   5.330   5.445   0.937  0.5409  0.6193 -1.7932
 1750WAT     H2 5770   5.249   5.573   0.940 -0.4889  0.0532  2.8360
 1751WAT      O 5771   2.488   0.644   4.131  0.2469 -0.0447 -0.1931
 1751WAT     H1 5772   2.430   0.720   4.138 -0.1082 -0.4003  0.9586
 1751WAT     H2 5773   2.576   0.681   4.138  0.0524  0.1973  1.3160
 1752WAT      O 5774   4.661   4.871   5.311 -0.0050 -0.1496 -0.1527
 1752WAT     H1 5775   4.665   4.842   5.403 -0.4732 -0.9860 -0.3926
 1752WAT     H2 5776   4.569   4.892   5.296 -0.0235 -0.5373 -0.5897
 1753WAT      O 5777   3.602   2.728   1.366 -0.2050 -0.2166 -0.0659
 1753WAT     H1 5778   3.645   2.697   1.286  2.6505  4.3062 -0.6412
 1753WAT     H2 5779   3.513   2.693   1.360  0.0599 -0.7660 -4.8600
 1754WAT      O 5780   3.769   1.348   3.188  0.3697 -0.2057  0.1207
 1754WAT     H1 5781   3.786   1.408   3.261  0.4134  0.1885 -0.2089
 1754WAT     H2 5782   3.695   1.295   3.218 -0.0570  0.4114  0.1913
 1755WAT      O 5783   4.533   4.888   0.261  0.0300 -0.8743 -0.5693
 1755WAT     H1 5784   4.437   4.889   0.258  0.0400 -0.5714 -0.8433
 1755WAT     H2 5785   4.556   4.796   0.253 -0.2484 -0.9810 -0.1685
 1756WAT      O 5786   3.355   0.486   5.682 -0.0718  0.3338  0.0689
 1756WAT     H1 5787   3.386   0.396   5.697  0.4583  0.1485 -1.8653
 1756WAT     H2 5788   3.337   0.489   5.588 -0.3739  2.1795  0.1583
 1757WAT      O 5789   3.650   4.958   5.576 -0.0305  0.1677 -0.4044
 1757WAT     H1 5790   3.666   4.877   5.529  2.0088 -0.2805  0.9405
 1757WAT     H2 5791   3.582   4.937   5.640 -0.1565 -0.2250 -0.6684
 1758WAT      O 5792   3.487   4.622   4.654 -0.1953 -0.1923 -0.3084
 1758WAT     H1 5793   3.555   4.584   4.709  2.2992 -0.8682 -3.5212
 1758WAT     H2 5794   3.411   4.564   4.666  0.8506 -1.3462  1.0238
 1759WAT      O 5795   3.189   3.512   0.021 -0.5282 -0.3161  0.2536
 1759WAT     H1 5796   3.114   3.508   0.080 -0.7365 -0.7381 -0.0364
 1759WAT     H2 5797   3.159   3.565  -0.053 -0.1078  0.6329  0.7453
 1760WAT      O 5798   3.812   5.492   2.528  0.5693  0.3957 -0.3234
 1760WAT     H1 5799   3.724   5.489   2.567  0.5647  1.8714 -0.1492
 1760WAT     H2 5800   3.800   5.544   2.448  1.1125 -0.1982 -0.7923
 1761WAT      O 5801   5.699   3.406   4.184  0.6688  0.0609  0.0333
 1761WAT     H1 5802   5.629   3.464   4.156 -0.1796 -2.0984 -2.7942
 1761WAT     H2 5803   5.654   3.334   4.228  1.1482 -0.9054 -1.0065
 1762WAT      O 5804   3.632   1.146   4.747  0.1802 -0.0227 -0.1072
 1762WAT     H1 5805   3.689   1.072   4.727  0.0174  0.2207 -1.6452
 1762WAT     H2 5806   3.615   1.186   4.661  0.5516  2.0070  0.7045
 1763WAT      O 5807   2.410   1.602   5.447 -0.3229  0.2177  0.2970
 1763WAT     H1 5808   2.345   1.563   5.389  0.6941  0.3488 -0.9873
 1763WAT     H2 5809   2.386   1.695   5.451 -1.1528 -0.0285  1.1457
 1764WAT      O 5810   3.408   1.591   5.539 -0.2753 -1.0079  0.6080
 1764WAT     H1 5811   3.370   1.562   5.622 -0.1471  1.6796  1.7102
 1764WAT     H2 5812   3.344   1.652   5.503  0.6957 -0.3621 -0.0825
 1765WAT      O 5813   5.311   1.969   5.635 -0.4315  0.2718 -0.1339
 1765WAT     H1 5814   5.338   2.053   5.600  0.3645 -0.0665 -0.3542
 1765WAT     H2 5815   5.216   1.976   5.646 -0.2194  1.6787  1.1306
 1766WAT      O 5816   4.380   1.268   1.323  0.6802  0.3177  0.2744
 1766WAT     H1 5817   4.359   1.318   1.402 -1.2048  0.1240 -0.0518
 1766WAT     H2 5818   4.374   1.176   1.350 -1.9522  0.1917 -0.4638
 1767WAT      O 5819   5.081   5.708   4.445 -0.4070 -0.4956  0.1177
 1767WAT     H1 5820   5.109   5.628   4.490 -0.0656 -0.6365 -0.3335
 1767WAT     H2 5821   5.007   5.740   4.496 -1.1528 -1.6159 -0.2372
 1768WAT      O 5822   3.086   1.462   0.865  0.1776 -0.2363  0.0270
 1768WAT     H1 5823   3.091   1.375   0.826 -0.8726  0.0861 -0.8668
 1768WAT     H2 5824   3.177   1.493   0.866  0.4148 -0.8801 -0.7092
 1769WAT      O 5825   4.012   1.311   0.519  0.5118 -0.9309 -0.0670
 1769WAT     H1 5826   3.972   1.338   0.601 -1.6447 -3.4684 -0.1631
 1769WAT     H2 5827   3.939   1.280   0.466  2.0872 -1.2056 -2.2064
 1770WAT      O 5828   3.441   1.999   1.398  0.1696 -0.2222 -0.0260
 1770WAT     H1 5829   3.420   1.934   1.332  1.0189 -0.2045 -0.3226
 1770WAT     H2 5830   3.515   1.962   1.447  0.3000  0.2695  0.1625
 1771WAT      O 5831   6.428   5.636   3.456  0.6339  0.0847  0.3620
 1771WAT     H1 5832   6.459   5.655   3.545  0.3589  0.3872  0.3938
 1771WAT     H2 5833   6.457   5.546   3.440 -1.0108 -0.6940  1.5183
 1772WAT      O 5834   4.694   4.390   0.091  0.1202 -0.3714  0.0085
 1772WAT     H1 5835   4.630   4.352   0.031 -1.2114 -0.0674  1.1656
 1772WAT     H2 5836   4.777   4.350   0.066 -0.3817 -0.2793 -1.9801
 1773WAT      O 5837   4.588   3.875   0.025 -0.4680 -0.0653  0.2828
 1773WAT     H1 5838   4.509   3.838   0.064 -0.9808  0.7855  0.0855
 1773WAT     H2 5839   4.588   3.842  -0.065 -0.9645  0.4516  0.0841
 1774WAT      O 5840   1.753   4.588   5.014  0.4271  0.0656  0.3171
 1774WAT     H1 5841   1.764   4.493   5.018  0.7769  0.0833 -0.1563
 1774WAT     H2 5842   1.841   4.623   5.027  0.8977  0.2311 -2.6968
 1775WAT      O 5843   4.028   0.252   5.349  0.4370 -0.8550  0.1083
 1775WAT     H1 5844   4.093   0.306   5.394 -1.3630 -0.3252  2.2576
 1775WAT     H2 5845   3.973   0.315   5.302 -0.3142 -1.0042  0.7749
 1776WAT      O 5846   5.592   3.713   4.788 -0.0728 -0.2303 -0.4500
 1776WAT     H1 5847   5.672   3.729   4.839 -0.3182 -0.0912 -0.1032
 1776WAT     H2 5848   5.566   3.800   4.759 -0.0351 -0.2895 -0.6597
 1777WAT      O 5849   5.042   4.591   4.300 -0.2762  0.4152 -0.9940
 1777WAT     H1 5850   4.950   4.579   4.326 -0.0322 -0.3863 -0.4390
 1777WAT     H2 5851   5.073   4.664   4.354 -0.3234  0.0399 -0.4499
 1778WAT      O 5852   5.061   2.453   4.909  0.0846  0.2395  0.4749
 1778WAT     H1 5853   5.149   2.490   4.898  0.5759 -1.0664 -0.2204
 1778WAT     H2 5854   5.035   2.426   4.821 -0.4600 -0.5770  0.8732
 1779WAT      O 5855   4.766   4.294   5.796  0.2597 -0.3480  0.9107
 1779WAT     H1 5856   4.750   4.210   5.840  0.0878 -0.5711  0.4317
 1779WAT     H2 5857   4.729   4.282   5.709  0.4426  0.1512  0.7638
 1780WAT      O 5858   5.598   5.217   0.732 -0.2083  0.1421 -0.2891
 1780WAT     H1 5859   5.655   5.280   0.775  0.1134 -0.3296 -0.0196
 1780WAT     H2 5860   5.658   5.157   0.688 -0.4771 -0.5511  0.2682
 1781WAT      O 5861   3.803   5.035   3.899  0.9510  0.0721  0.1421
 1781WAT     H1 5862   3.822   5.043   3.806  0.0813 -2.1351 -0.3012
 1781WAT     H2 5863   3.771   5.122   3.925  2.3807  1.0689 -1.2918
 1782WAT      O 5864   2.787   6.070   3.854 -0.5469  0.1149  0.4557
 1782WAT     H1 5865   2.818   6.121   3.779 -2.0472  2.2036  1.1473
 1782WAT     H2 5866   2.763   5.985   3.817  2.3553 -0.3230 -0.6915
 1783WAT      O 5867   5.536   4.681   3.989  0.1575 -0.4008 -0.3132
 1783WAT     H1 5868   5.476   4.634   4.047  1.0137 -0.7548  0.3128
 1783WAT     H2 5869   5.576   4.612   3.936 -1.4410  0.0052 -2.1927
 1784WAT      O 5870   4.556   4.671   0.487 -0.3462  0.5611 -0.0817
 1784WAT     H1 5871   4.461   4.672   0.481 -0.3643 -1.8556 -2.5637
 1784WAT     H2 5872   4.575   4.622   0.567 -1.2253  0.1255 -0.1335
 1785WAT      O 5873   5.766   5.050   3.730  0.5036  0.0430 -0.1568
 1785WAT     H1 5874   5.740   5.094   3.811 -0.1849 -0.8322  0.1125
 1785WAT     H2 5875   5.795   5.121   3.672 -0.6785  0.8646  0.2198
 1786WAT      O 5876   6.249   3.966   5.065 -0.0751  0.2578  0.4352
 1786WAT     H1 5877   6.329   4.018   5.061 -0.9236  1.5408 -0.8816
 1786WAT     H2 5878   6.233   3.939   4.975 -0.2619 -1.4039  0.9245
 1787WAT      O 5879   4.538   0.599   0.163  0.0208  0.2956  0.0495
 1787WAT     H1 5880   4.615   0.598   0.221  0.5877 -1.0050 -0.6731
 1787WAT     H2 5881   4.527   0.507   0.138 -1.1054  0.6370 -0.7460
 1788WAT      O 5882   4.837   5.216   1.738  0.0043  0.2955  0.1052
 1788WAT     H1 5883   4.860   5.217   1.831  1.5385  1.6644 -0.2519
 1788WAT     H2 5884   4.769   5.284   1.730 -0.6317 -0.3037  0.3247
 1789WAT      O 5885   4.594   4.329   4.756 -0.2149 -0.1131 -0.1932
 1789WAT     H1 5886   4.584   4.306   4.664 -1.7778  2.9785 -0.9399
 1789WAT     H2 5887   4.518   4.384   4.775 -0.0106 -0.7537  3.0180
 1790WAT      O 5888   4.189   1.089   5.707 -0.4557 -0.2595 -0.4838
 1790WAT     H1 5889   4.256   1.113   5.644  0.2528 -0.0856  0.3276
 1790WAT     H2 5890   4.161   1.172   5.747  0.9748 -0.5667  1.2912
 1791WAT      O 5891   5.782   0.269   3.889 -0.1245  0.3296  0.3631
 1791WAT     H1 5892   5.727   0.193   3.874  0.1471 -0.2158  1.9713
 1791WAT     H2 5893   5.871   0.237   3.877  0.0067  0.3036  1.3387
 1792WAT      O 5894   5.567   4.950   0.229  0.0618 -0.0691  0.1648
 1792WAT     H1 5895   5.595   4.982   0.143 -1.0020  0.1009 -0.1391
 1792WAT     H2 5896   5.516   4.871   0.209 -1.2901  0.6809  0.5095
 1793WAT      O 5897   2.492   5.065   0.347  0.2602  0.6011 -0.2558
 1793WAT     H1 5898   2.583   5.037   0.336 -0.1284 -0.2484 -1.4572
 1793WAT     H2 5899   2.447   4.989   0.383  0.3012  1.5066  1.8642
 1794WAT      O 5900   2.779   5.518   3.452  0.4712  0.0617  0.4367
 1794WAT     H1 5901   2.722   5.580   3.497  0.7055  0.0268  0.7829
 1794WAT     H2 5902   2.741   5.510   3.364 -0.4393 -0.4587  0.8656
 1795WAT      O 5903   3.969   4.529   3.100  0.0995  0.2200  0.3614
 1795WAT     H1 5904   3.940   4.482   3.179  0.7607 -0.0619  0.4351
 1795WAT     H2 5905   4.013   4.607   3.134 -0.2601  0.4726  0.2539
 1796WAT      O 5906   5.944   4.573   4.062  0.0394  0.0124  0.3801
 1796WAT     H1 5907   5.916   4.592   4.151  0.1285  0.4062  0.3269
 1796WAT     H2 5908   5.936   4.478   4.054 -1.1643  0.0930  0.4049
 1797WAT      O 5909   5.335   5.663   3.422  0.3837  0.1832  0.2120
 1797WAT     H1 5910   5.396   5.589   3.421  0.5565  0.3181 -1.0475
 1797WAT     H2 5911   5.389   5.738   3.447  0.6227  0.2046 -0.3576
 1798WAT      O 5912   3.386   0.784   3.508 -0.6344 -1.0828  0.7887
 1798WAT     H1 5913   3.359   0.740   3.427 -0.8783  1.3729 -0.5542
 1798WAT     H2 5914   3.478   0.805   3.495 -1.1192  0.9397  0.2990
 1799WAT      O 5915   3.248   4.954   2.291 -0.2451  0.1431 -0.0339
 1799WAT     H1 5916   3.173   5.006   2.320  0.2306  0.5424  0.5114
 1799WAT     H2 5917   3.323   5.013   2.301  0.4120 -0.8425  1.2502
 1800WAT      O 5918   4.133   4.760   4.331 -0.0943 -0.2782 -0.0602
 1800WAT     H1 5919   4.075   4.694   4.369 -1.1858  0.7373  0.1005
 1800WAT     H2 5920   4.207   4.765   4.392 -0.0098 -1.3241 -0.0648
 1801WAT      O 5921   3.525   1.217   3.266  0.0834  0.1856  0.1737
 1801WAT     H1 5922   3.454   1.264   3.222  0.7004 -0.3271 -1.4651
 1801WAT     H2 5923   3.529   1.133   3.220  1.3032 -0.0553  0.6890
 1802WAT      O 5924   7.021   3.797   1.162  0.2833 -0.1354 -0.3563
 1802WAT     H1 5925   6.995   3.833   1.246 -1.0403  0.1782 -0.8763
 1802WAT     H2 5926   7.066   3.869   1.118 -0.7534  0.3304 -0.6764
 1803WAT      O 5927   6.796   4.590   3.807  0.4278  0.1562 -0.3215
 1803WAT     H1 5928   6.872   4.560   3.757  0.2563 -0.2773 -0.3246
 1803WAT     H2 5929   6.817   4.569   3.898  0.2187 -0.1614 -0.3464
 1804WAT      O 5930   6.938   4.899   1.781 -0.1160  0.3472 -0.1977
 1804WAT     H1 5931   6.885   4.840   1.835  1.3546  0.5316  1.5645
 1804WAT     H2 5932   7.023   4.854   1.774  0.3486  1.2769 -0.6518
 1805WAT      O 5933   4.156   5.657   3.450  0.3108  0.1142 -0.1206
 1805WAT     H1 5934   4.133   5.750   3.453  0.0616  0.1414 -2.0185
 1805WAT     H2 5935   4.238   5.654   3.401 -0.2068 -0.7477 -0.9579
 1806WAT      O 5936   4.605   0.346   4.987  0.7723  0.7186  0.1838
 1806WAT     H1 5937   4.510   0.333   4.990  0.7397  0.7997 -0.3160
 1806WAT     H2 5938   4.627   0.385   5.072  0.4995 -0.1746  0.6724
 1807WAT      O 5939   6.296   5.252   3.289  0.3494  0.8035  0.1777
 1807WAT     H1 5940   6.304   5.301   3.371 -1.0370  0.6974  0.3908
 1807WAT     H2 5941   6.207   5.217   3.291  0.8169 -0.4753 -0.6729
 1808WAT      O 5942   3.909   5.979   4.470  0.0162 -0.2274  0.6685
 1808WAT     H1 5943   3.825   5.950   4.434 -0.0694  0.6930  0.1113
 1808WAT     H2 5944   3.893   6.068   4.501  1.2624  0.7268 -1.2626
 1809WAT      O 5945   6.378   3.022   3.366 -0.5896 -0.3722  0.0917
 1809WAT     H1 5946   6.441   3.002   3.435  1.5266 -2.3266 -2.1787
 1809WAT     H2 5947   6.333   3.100   3.396  0.7246 -0.6865  3.2849
 1810WAT      O 5948   6.207   2.993   4.350 -0.1172 -0.0581 -0.3873
 1810WAT     H1 5949   6.205   3.077   4.305 -1.2177 -0.3083 -0.8499
 1810WAT     H2 5950   6.156   2.935   4.293  0.6500 -1.0408 -0.0904
 1811WAT      O 5951   4.978   5.855   3.196 -0.3884 -0.1106  0.0927
 1811WAT     H1 5952   4.927   5.876   3.274  1.0775 -2.0471  1.6970
 1811WAT     H2 5953   4.950   5.767   3.172  2.3546 -1.4840  1.3626
 1812WAT      O 5954   2.056   5.430   2.727 -0.2689  0.3855 -0.5645
 1812WAT     H1 5955   2.097   5.386   2.802 -2.3162 -0.5729  0.0436
 1812WAT     H2 5956   2.083   5.522   2.736 -0.1078  0.2100  1.1091
 1813WAT      O 5957   4.628   4.901   3.632  0.0470  0.7917 -0.0910
 1813WAT     H1 5958   4.623   4.970   3.698  0.2938  2.3278 -1.6215
 1813WAT     H2 5959   4.538   4.867   3.626 -0.2300  1.4611  0.1776
 1814WAT      O 5960   4.355   5.840   4.926  0.2315  0.2310  0.3443
 1814WAT     H1 5961   4.323   5.891   4.851 -0.5309  0.6421  0.9417
 1814WAT     H2 5962   4.438   5.881   4.949 -1.0157  2.1012  1.6767
 1815WAT      O 5963   4.479   0.641   5.244 -0.0693  0.1258 -0.0986
 1815WAT     H1 5964   4.429   0.561   5.226  0.2701 -0.3342  0.9381
 1815WAT     H2 5965   4.569   0.619   5.219  0.3222 -0.3688  1.6278
 1816WAT      O 5966   3.133   0.408   4.049 -0.3395  0.3901 -1.0595
 1816WAT     H1 5967   3.173   0.493   4.064 -0.3373  0.2360 -0.1480
 1816WAT     H2 5968   3.091   0.416   3.963 -0.3684  1.3107 -0.9658
 1817WAT      O 5969   3.514   0.609   3.973  0.1662  0.3944 -0.0816
 1817WAT     H1 5970   3.577   0.676   3.998 -0.3710  1.4490 -1.3930
 1817WAT     H2 5971   3.545   0.577   3.888 -1.0670  0.9969 -0.7945
 1818WAT      O 5972   4.162   5.941   5.173 -0.4196 -0.1987 -0.0081
 1818WAT     H1 5973   4.173   5.889   5.094 -0.6764  2.1514 -1.6777
 1818WAT     H2 5974   4.090   5.899   5.220 -1.2150 -0.8317 -1.7380
 1819WAT      O 5975   3.683   4.135   3.962  0.0291 -0.2973 -0.0556
 1819WAT     H1 5976   3.660   4.118   4.054 -2.6599  1.9271 -0.1828
 1819WAT     H2 5977   3.674   4.051   3.919  1.7061 -1.4847  1.7176
 1820WAT      O 5978   4.590   5.327   0.505 -0.8442 -0.0660 -0.1771
 1820WAT     H1 5979   4.665   5.336   0.446 -0.7956 -1.8755 -0.4466
 1820WAT     H2 5980   4.537   5.258   0.466 -0.7764 -1.3865  1.9128
 1821WAT      O 5981   5.263   4.422   0.169 -0.4121  0.0712  0.1034
 1821WAT     H1 5982   5.177   4.460   0.183 -0.3376 -0.1465  1.2084
 1821WAT     H2 5983   5.262   4.341   0.220  0.6424  0.3449  0.5803
 1822WAT      O 5984   4.672   4.943   0.586  0.3206  0.2366 -0.1529
 1822WAT     H1 5985   4.739   4.962   0.653  0.4353 -0.7010  0.0088
 1822WAT     H2 5986   4.717   4.888   0.522 -0.3792 -0.6954  0.1358
 1823WAT      O 5987   6.042   3.789   2.779  0.3009  0.1766 -0.9096
 1823WAT     H1 5988   6.087   3.874   2.773 -2.7768  2.1020  0.4079
 1823WAT     H2 5989   5.978   3.791   2.708  0.8281 -1.5275 -1.4619
 1824WAT      O 5990   4.010   3.966   5.692  0.2193  0.1839 -0.2481
 1824WAT     H1 5991   4.016   4.026   5.617  3.2706  1.2135  0.6418
 1824WAT     H2 5992   3.967   4.017   5.760 -1.4279 -0.3273 -0.8596
 1825WAT      O 5993   4.559   5.721   3.391 -0.7003  0.1705  0.2517
 1825WAT     H1 5994   4.515   5.653   3.340  0.8371  0.5156 -1.6281
 1825WAT     H2 5995   4.650   5.692   3.396 -0.2685  1.4894  0.4674
 1826WAT      O 5996   5.127   0.938   3.528  0.5791  0.2418 -0.2217
 1826WAT     H1 5997   5.162   1.004   3.468  1.6176 -0.2871 -0.2281
 1826WAT     H2 5998   5.138   0.976   3.615 -0.8366  0.9686 -0.3409
 1827WAT      O 5999   3.798   5.703   4.623  0.7334 -0.3026 -0.0166
 1827WAT     H1 6000   3.851   5.625   4.635  2.0697  0.1666 -2.2534
 1827WAT     H2 6001   3.856   5.765   4.578 -1.1775  0.8331 -1.0728
 1828WAT      O 6002   5.811   3.848   4.197 -0.1668  0.0783 -0.5138
 1828WAT     H1 6003   5.867   3.856   4.119 -0.3506  0.7656 -0.5835
 1828WAT     H2 6004   5.789   3.938   4.219  0.4172 -0.0665  0.7306
 1829WAT      O 6005   3.027   3.208   4.135 -0.3470 -0.3528 -0.4471
 1829WAT     H1 6006   3.095   3.140   4.135 -0.2099 -0.2204 -1.0481
 1829WAT     H2 6007   2.955   3.170   4.085 -0.4640 -0.2446 -0.3595
 1830WAT      O 6008   4.147   5.696   5.638  0.4485  0.3107 -0.0397
 1830WAT     H1 6009   4.217   5.692   5.572  0.8758 -0.5329  0.4540
 1830WAT     H2 6010   4.092   5.769   5.610 -0.2216 -0.9251 -2.1862
 1831WAT      O 6011   4.616   4.860   3.957  0.2879 -0.6679 -0.2453
 1831WAT     H1 6012   4.525   4.845   3.931  0.0346 -0.1877  0.3433
 1831WAT     H2 6013   4.632   4.952   3.935  0.7031 -0.8045 -0.5343
 1832WAT      O 6014   3.096   4.307   2.766  0.1909  0.1302  0.2558
 1832WAT     H1 6015   3.150   4.245   2.717  0.1846  0.6494 -0.4132
 1832WAT     H2 6016   3.088   4.267   2.853  1.4122 -0.0991  0.2866
 1833WAT      O 6017   3.812   5.289   4.608  0.0296 -0.3120  0.4133
 1833WAT     H1 6018   3.887   5.341   4.637  1.0183 -1.2551 -0.3532
 1833WAT     H2 6019   3.767   5.264   4.689  1.0100 -0.3902  0.9504
 1834WAT      O 6020   5.380   4.259   4.566 -0.3495 -0.0418 -0.9938
 1834WAT     H1 6021   5.365   4.260   4.472  0.9886  1.4900 -1.2412
 1834WAT     H2 6022   5.468   4.297   4.576 -0.7833  0.5626  0.9059
 1835WAT      O 6023   5.014   5.831   0.243  0.1131  0.1876  0.0324
 1835WAT     H1 6024   4.921   5.844   0.257  0.0842  0.3763 -0.3235
 1835WAT     H2 6025   5.057   5.889   0.307 -0.0137  0.4438 -0.1144
 1836WAT      O 6026   6.474   0.698   3.403  0.4363 -0.4293 -0.5321
 1836WAT     H1 6027   6.435   0.694   3.490  1.4310  0.0784 -0.0384
 1836WAT     H2 6028   6.401   0.684   3.343  0.0295 -2.7400  0.4051
 1837WAT      O 6029   4.741   4.777   2.037 -0.0705 -0.3372  0.2369
 1837WAT     H1 6030   4.714   4.686   2.023  0.0167 -0.2146 -0.7951
 1837WAT     H2 6031   4.833   4.778   2.013 -0.4489  0.3456 -1.2783
 1838WAT      O 6032   1.546   1.620   1.341 -0.0198  0.4374  0.1195
 1838WAT     H1 6033   1.557   1.655   1.252 -0.5001  3.5054  1.1586
 1838WAT     H2 6034   1.464   1.659   1.372 -0.1746 -1.0607  1.7381
 1839WAT      O 6035   0.595   3.399   3.888 -0.6197 -0.3477  0.2544
 1839WAT     H1 6036   0.625   3.485   3.915  1.5224 -0.9018 -0.2170
 1839WAT     H2 6037   0.674   3.353   3.859 -1.7827 -2.2640 -0.0869
 1840WAT      O 6038   4.487   5.914   4.418 -0.1419 -0.3078  0.4907
 1840WAT     H1 6039   4.565   5.964   4.440 -0.7476  0.4305  1.0028
 1840WAT     H2 6040   4.516   5.853   4.349  0.2463  1.7715 -1.2789
 1841WAT      O 6041   5.073   5.533   1.674 -0.1768  0.2837 -0.0916
 1841WAT     H1 6042   5.077   5.532   1.579  0.9191 -0.3975 -0.0592
 1841WAT     H2 6043   5.003   5.472   1.697  1.3581 -1.7070 -0.4305
 1842WAT      O 6044   4.629   4.719   4.769  0.4441 -0.1314  0.1240
 1842WAT     H1 6045   4.619   4.791   4.831 -0.0249  0.8265 -1.0080
 1842WAT     H2 6046   4.540   4.702   4.738  0.9512  1.8251 -2.8324
 1843WAT      O 6047   4.161   0.469   4.129 -0.2943 -0.7043 -0.1339
 1843WAT     H1 6048   4.115   0.518   4.196 -1.1766 -1.0791 -0.4604
 1843WAT     H2 6049   4.187   0.536   4.065  2.1085 -0.0526  1.3717
 1844WAT      O 6050   4.880   5.901   2.339  0.1634 -0.1788 -0.9422
 1844WAT     H1 6051   4.843   5.812   2.341  1.0920 -0.5962 -1.8246
 1844WAT     H2 6052   4.947   5.900   2.408 -0.9273  0.3620  0.1689
 1845WAT      O 6053   4.742   4.848   5.585 -0.5272 -0.2650  0.7616
 1845WAT     H1 6054   4.796   4.779   5.545 -1.8297  0.5237 -2.8043
 1845WAT     H2 6055   4.798   4.925   5.585 -0.4111 -0.3489  0.7840
 1846WAT      O 6056   4.482   4.981   4.245 -0.0699  0.1472 -0.2901
 1846WAT     H1 6057   4.494   4.909   4.183 -0.9950  0.5904 -0.9865
 1846WAT     H2 6058   4.553   5.042   4.224  1.4479 -1.0381  1.0590
 1847WAT      O 6059   2.833   0.146   3.476  0.1448 -0.1655  0.0520
 1847WAT     H1 6060   2.762   0.210   3.483 -1.2247 -1.6165  0.1408
 1847WAT     H2 6061   2.868   0.139   3.565  0.1515  0.2998  0.0857
 1848WAT      O 6062   2.750   5.680   2.665  0.3829  0.0352 -0.4214
 1848WAT     H1 6063   2.715   5.753   2.615  0.7145  2.4725  2.6095
 1848WAT     H2 6064   2.834   5.712   2.698 -0.6644 -0.5337  3.2308
 1849WAT      O 6065   3.002   4.235   3.042 -0.2580 -0.3692  0.1436
 1849WAT     H1 6066   2.931   4.229   2.979  0.2226 -0.3218 -0.4156
 1849WAT     H2 6067   2.965   4.281   3.117  0.1590  3.0934 -1.5844
 1850WAT      O 6068   3.293   5.112   5.634 -0.3721 -0.4688  0.1329
 1850WAT     H1 6069   3.329   5.200   5.632 -0.3378 -0.4689  0.6524
 1850WAT     H2 6070   3.271   5.097   5.726 -2.8772  0.0140 -0.3235
 1851WAT      O 6071   4.962   5.008   0.124 -0.3593 -0.2347  0.4870
 1851WAT     H1 6072   4.870   5.036   0.117 -0.1963 -0.2085 -2.5303
 1851WAT     H2 6073   4.993   5.002   0.034  1.9960 -2.4088  1.3257
 1852WAT      O 6074   5.001   5.397   4.357  0.1370  0.2921  0.3742
 1852WAT     H1 6075   4.935   5.338   4.391  0.9952 -1.0382 -0.1858
 1852WAT     H2 6076   5.024   5.452   4.432 -0.1223 -0.6065  1.1346
 1853WAT      O 6077   3.694   4.813   5.044 -0.2268  0.0169 -0.4586
 1853WAT     H1 6078   3.648   4.750   5.098 -0.1844  0.5859  0.2574
 1853WAT     H2 6079   3.680   4.897   5.087 -0.0948  0.4723 -1.2679
 1854WAT      O 6080   4.558   0.101   4.184 -0.5637 -0.3286  0.2225
 1854WAT     H1 6081   4.482   0.114   4.127  0.0714  1.4346 -0.2895
 1854WAT     H2 6082   4.545   0.014   4.222 -2.2650 -0.5183 -0.6991
 1855WAT      O 6083   4.665   5.933   1.125 -0.0340  0.9512  0.4553
 1855WAT     H1 6084   4.675   5.847   1.167  0.7571  1.2683  0.9397
 1855WAT     H2 6085   4.573   5.936   1.099  0.3125 -0.7490 -1.1554
 1856WAT      O 6086   3.947   4.367   4.217  0.1168 -0.0930 -0.0369
 1856WAT     H1 6087   4.001   4.438   4.183 -0.5769  0.7315  0.5697
 1856WAT     H2 6088   3.857   4.395   4.202 -0.1645 -0.9724 -0.0518
 1857WAT      O 6089   4.248   5.412   4.258  0.1364  0.2721  0.0597
 1857WAT     H1 6090   4.161   5.394   4.221  1.0537  0.6498 -2.4187
 1857WAT     H2 6091   4.261   5.341   4.322 -1.9698  0.2097  0.5005
 1858WAT      O 6092   5.180   5.970   3.024  0.7320  0.0951  0.2826
 1858WAT     H1 6093   5.124   5.953   3.100  1.0242  0.6767  0.6420
 1858WAT     H2 6094   5.212   6.060   3.038  0.3616  0.4056 -0.8110
 1859WAT      O 6095   3.402   1.101   3.513  0.0885  0.0809  0.0193
 1859WAT     H1 6096   3.423   1.008   3.515 -0.0919  0.0374  1.7987
 1859WAT     H2 6097   3.456   1.137   3.442  0.5264 -1.2812 -0.3590
 1860WAT      O 6098   2.597   0.881   5.310 -0.3675 -0.1191 -0.1192
 1860WAT     H1 6099   2.585   0.789   5.335 -0.2200 -0.3344 -0.7977
 1860WAT     H2 6100   2.688   0.884   5.278 -0.1622  0.4081  0.5041
 1861WAT      O 6101   2.431   5.143   3.094 -0.3156 -0.2127  0.3378
 1861WAT     H1 6102   2.427   5.185   3.180 -1.0912 -0.9051  0.6553
 1861WAT     H2 6103   2.484   5.202   3.041  1.1484 -0.3382  1.6010
 1862WAT      O 6104   4.322   5.355   5.000  0.0382  0.4490 -0.4427
 1862WAT     H1 6105   4.380   5.327   5.071 -1.8838 -1.4417  0.5055
 1862WAT     H2 6106   4.319   5.450   5.008 -1.0589  0.2849  2.9015
 1863WAT      O 6107   5.211   0.301   1.896 -0.2201  0.3457 -0.2476
 1863WAT     H1 6108   5.267   0.239   1.943 -0.5709  0.3820  0.2237
 1863WAT     H2 6109   5.265   0.332   1.823  0.1269 -0.1442 -0.1990
 1864WAT      O 6110   4.855   5.277   5.986 -0.3705  0.0627 -0.1999
 1864WAT     H1 6111   4.779   5.273   6.044  0.2104  1.3679  0.7013
 1864WAT     H2 6112   4.823   5.242   5.903 -2.0363  0.7797  0.0914
 1865WAT      O 6113   4.088   0.116   5.114  0.4798  0.5790  0.1199
 1865WAT     H1 6114   4.083   0.022   5.129  3.2645  0.3447  0.1254
 1865WAT     H2 6115   4.089   0.155   5.201  0.3128  0.5424  0.1385
 1866WAT      O 6116   3.212   5.232   3.775  0.0765  0.5723  0.1600
 1866WAT     H1 6117   3.241   5.301   3.716 -0.7778 -0.1732 -1.1915
 1866WAT     H2 6118   3.289   5.211   3.827  1.8140 -0.7042 -2.6704
 1867WAT      O 6119   2.745   4.973   5.313 -0.5544  0.2416 -0.2021
 1867WAT     H1 6120   2.795   4.891   5.307  1.7285  1.3509  1.8467
 1867WAT     H2 6121   2.736   4.988   5.407 -2.4416  1.5000 -0.5427
 1868WAT      O 6122   4.330   6.104   2.473 -0.7831 -0.1112  0.8025
 1868WAT     H1 6123   4.372   6.182   2.509  0.2177  0.4008 -1.2723
 1868WAT     H2 6124   4.320   6.124   2.380 -1.3941 -2.0978  0.3926
 1869WAT      O 6125   4.826   5.893   3.444  0.4532 -0.0479 -0.0880
 1869WAT     H1 6126   4.896   5.842   3.485 -1.5792 -2.3597  0.7651
 1869WAT     H2 6127   4.799   5.954   3.513  0.6565 -0.1410  0.0776
 1870WAT      O 6128   3.528   4.356   3.876 -0.4180 -0.1410 -0.4146
 1870WAT     H1 6129   3.503   4.321   3.790 -2.8884 -0.0853  0.2187
 1870WAT     H2 6130   3.583   4.287   3.914  0.7559 -0.1580 -1.9878
 1871WAT      O 6131   5.220   4.871   5.041 -0.3826  0.3384  0.1940
 1871WAT     H1 6132   5.142   4.834   5.083 -1.4432  1.3045 -0.8669
 1871WAT     H2 6133   5.255   4.932   5.107  0.0871 -0.8498  1.0708
 1872WAT      O 6134   3.029   5.798   3.123 -0.5326  0.3158  0.3330
 1872WAT     H1 6135   2.993   5.872   3.075 -1.0035 -0.8177 -1.1624
 1872WAT     H2 6136   3.034   5.728   3.057  2.6420 -0.1533  0.9401
 1873WAT      O 6137   4.141   0.020   5.777 -0.3767  0.2072  0.2033
 1873WAT     H1 6138   4.230   0.049   5.797 -0.5355  0.1767  0.9505
 1873WAT     H2 6139   4.086   0.097   5.792 -1.1237 -0.9385  4.4571
 1874WAT      O 6140   4.142   0.460   3.459 -0.1847  0.4044 -0.4608
 1874WAT     H1 6141   4.120   0.552   3.474 -1.0824 -0.0016  0.9136
 1874WAT     H2 6142   4.083   0.433   3.388 -0.2562  0.7667 -0.5411
 1875WAT      O 6143   5.260   0.933   4.284 -0.6680  0.1025  0.2199
 1875WAT     H1 6144   5.180   0.980   4.310 -0.6830 -0.6049  1.5292
 1875WAT     H2 6145   5.233   0.842   4.278  0.1269 -0.2072  1.1051
 1876WAT      O 6146   3.854   0.186   2.949  0.5758  0.0819  0.4731
 1876WAT     H1 6147   3.874   0.142   2.866  0.6489 -0.5609  0.8245
 1876WAT     H2 6148   3.881   0.277   2.935 -0.6230  0.3055 -0.6553
 1877WAT      O 6149   5.442   1.304   4.848  0.0876 -0.1821  0.2212
 1877WAT     H1 6150   5.534   1.291   4.869  0.2450 -0.5402 -0.6189
 1877WAT     H2 6151   5.405   1.347   4.925  0.1091 -3.3185  2.1213
 1878WAT      O 6152   2.928   5.697   4.203  0.4055 -0.2472 -0.0430
 1878WAT     H1 6153   2.946   5.647   4.123  2.1309 -1.5489  1.1127
 1878WAT     H2 6154   3.006   5.750   4.217  0.1106 -0.0107  0.7704
 1879WAT      O 6155   4.563   0.642   4.571 -0.3588 -1.3098  0.1217
 1879WAT     H1 6156   4.583   0.705   4.641 -2.5780  0.1978 -0.5086
 1879WAT     H2 6157   4.497   0.584   4.609  0.0805 -1.9260 -0.0269
 1880WAT      O 6158   4.786   4.700   3.759 -0.7505 -0.0736  0.4708
 1880WAT     H1 6159   4.756   4.774   3.708 -1.4089  0.0010  0.9608
 1880WAT     H2 6160   4.758   4.719   3.849 -0.7232 -0.7976  0.6406
 1881WAT      O 6161   4.045   5.946   5.596 -0.3650 -0.3383  0.4832
 1881WAT     H1 6162   3.979   5.993   5.544 -0.4803 -0.9463  0.0718
 1881WAT     H2 6163   4.058   6.001   5.673 -1.8211 -0.4986  0.8810
 1882WAT      O 6164   4.748   2.223   1.604  0.0287  0.5205  0.1673
 1882WAT     H1 6165   4.741   2.200   1.696 -0.1722  2.3725  0.6496
 1882WAT     H2 6166   4.842   2.230   1.588  0.1209 -0.9138 -0.1053
 1883WAT      O 6167   6.320   3.969   3.844  0.7661 -0.1522 -0.0436
 1883WAT     H1 6168   6.299   3.887   3.798  1.6747 -0.8739  0.7962
 1883WAT     H2 6169   6.367   3.941   3.922 -0.7556  1.0599  1.3560
 1884WAT      O 6170   6.248   4.874   3.215  0.3813 -0.1872  0.5462
 1884WAT     H1 6171   6.223   4.934   3.144 -0.9071 -0.2693  0.9098
 1884WAT     H2 6172   6.332   4.839   3.187  0.1798  0.2248 -0.6663
 1885WAT      O 6173   3.056   5.614   3.537  0.1435  0.4542  0.0341
 1885WAT     H1 6174   2.965   5.592   3.515  0.3599 -0.7635  0.2952
 1885WAT     H2 6175   3.061   5.708   3.523 -1.1947  0.5643  0.1148
 1886WAT      O 6176   2.061   0.263   2.884  0.4890  0.1316  0.0383
 1886WAT     H1 6177   2.099   0.284   2.969  0.7943  0.1219 -0.0927
 1886WAT     H2 6178   1.968   0.250   2.901  0.6707 -0.6030  0.5021
 1887WAT      O 6179   4.923   4.845   2.721 -0.0358  0.3015 -0.2728
 1887WAT     H1 6180   4.952   4.810   2.637 -1.7656  1.7756 -1.5392
 1887WAT     H2 6181   4.979   4.922   2.735 -0.4383  0.6492 -0.5788
 1888WAT      O 6182   4.110   4.183   3.661 -0.1344 -0.1394 -0.4387
 1888WAT     H1 6183   4.188   4.232   3.634 -0.0707 -0.6277 -1.1757
 1888WAT     H2 6184   4.131   4.151   3.749  0.8649 -1.0206 -0.9727
 1889WAT      O 6185   4.001   4.603   2.326 -0.2579 -0.1632 -0.0605
 1889WAT     H1 6186   4.057   4.676   2.299 -1.6093  0.8197 -0.3447
 1889WAT     H2 6187   4.061   4.539   2.364  1.0782  0.6934 -0.6505
 1890WAT      O 6188   5.762   5.325   4.367  0.0316 -0.0746  0.4245
 1890WAT     H1 6189   5.827   5.258   4.345 -1.1667 -0.4650 -2.3603
 1890WAT     H2 6190   5.678   5.284   4.347 -0.9399  1.2287  1.6607
 1891WAT      O 6191   6.705   4.553   3.104  0.6763 -0.1698  0.0044
 1891WAT     H1 6192   6.752   4.597   3.175  0.2396  0.6267 -0.1918
 1891WAT     H2 6193   6.676   4.470   3.143  2.4366 -0.8143  0.0556
 1892WAT      O 6194   5.228   3.273   1.621  0.3726  0.3982 -0.4143
 1892WAT     H1 6195   5.299   3.330   1.652 -0.3412 -0.4249  3.1621
 1892WAT     H2 6196   5.152   3.330   1.615  0.3443  0.4200  0.1397
 1893WAT      O 6197   4.015   5.386   1.602  0.2737  0.4884 -0.2794
 1893WAT     H1 6198   4.106   5.360   1.588 -0.2310 -1.7234  0.1330
 1893WAT     H2 6199   3.996   5.362   1.692 -1.0550 -0.2437 -0.7261
 1894WAT      O 6200   4.407   5.537   5.470  0.2739  0.0834  0.4301
 1894WAT     H1 6201   4.459   5.606   5.431 -0.4415  0.5797  0.3356
 1894WAT     H2 6202   4.459   5.507   5.545 -0.5524  2.5737  2.1445
 1895WAT      O 6203   5.408   4.576   5.640  0.3934  0.1904 -0.4825
 1895WAT     H1 6204   5.440   4.486   5.647  0.2267  0.2420  1.9442
 1895WAT     H2 6205   5.326   4.576   5.689  0.9725  1.8871  0.5782
 1896WAT      O 6206   3.205   5.426   3.338  0.0417  0.5055  0.2368
 1896WAT     H1 6207   3.187   5.333   3.328 -1.2290  0.6615  0.8393
 1896WAT     H2 6208   3.168   5.449   3.423  1.4190  1.3175  0.6594
 1897WAT      O 6209   4.774   3.772   3.953  0.1646  0.2356 -0.2550
 1897WAT     H1 6210   4.808   3.757   4.041 -0.8688  0.4509  0.1927
 1897WAT     H2 6211   4.699   3.712   3.946  1.3431 -1.1778 -1.6838
 1898WAT      O 6212   3.583   4.893   3.680 -0.2303  0.2510  0.2078
 1898WAT     H1 6213   3.522   4.871   3.610  0.9163 -2.1212 -0.1180
 1898WAT     H2 6214   3.542   4.859   3.759 -0.4360  0.8457  0.3644
 1899WAT      O 6215   5.611   4.207   4.979 -0.3389 -0.3288  0.1113
 1899WAT     H1 6216   5.567   4.262   4.914 -0.6703  0.3636  0.9049
 1899WAT     H2 6217   5.663   4.268   5.031 -0.6221 -0.7747  0.9364
 1900WAT      O 6218   7.290   3.713   4.295  0.6481  0.0135  0.3379
 1900WAT     H1 6219   7.268   3.692   4.204 -0.3505 -0.4069  0.6632
 1900WAT     H2 6220   7.217   3.678   4.346  1.7696 -0.8262  1.4135
 1901WAT      O 6221   4.776   4.057   3.315 -0.4654 -0.2679  0.2459
 1901WAT     H1 6222   4.817   4.010   3.242  1.5438 -0.0949  1.1904
 1901WAT     H2 6223   4.685   4.067   3.289 -0.2566 -1.9728 -1.3431
 1902WAT      O 6224   4.030   5.669   3.691 -0.1931  0.1435  0.3988
 1902WAT     H1 6225   4.052   5.759   3.716 -1.3326  0.6492 -0.3257
 1902WAT     H2 6226   4.073   5.657   3.606 -0.3536  0.1321  0.3199
 1903WAT      O 6227   6.505   5.109   3.222  0.8375 -0.3143  0.0175
 1903WAT     H1 6228   6.420   5.139   3.253  0.8017 -1.1654  0.8034
 1903WAT     H2 6229   6.491   5.083   3.131 -0.3080 -2.4725  0.7284
 1904WAT      O 6230   3.340   5.386   4.118  0.0164 -0.5692 -0.5152
 1904WAT     H1 6231   3.309   5.309   4.165 -0.4585  0.5037  1.0316
 1904WAT     H2 6232   3.260   5.430   4.088 -0.0133  1.2501  1.9062
 1905WAT      O 6233   4.746   0.273   3.771  0.4246 -0.4664  0.5930
 1905WAT     H1 6234   4.707   0.241   3.690 -0.8159 -1.9482  1.7304
 1905WAT     H2 6235   4.768   0.365   3.752  0.1959 -0.7811 -1.4017
 1906WAT      O 6236   3.970   6.094   3.690  0.0935  0.2649  0.0067
 1906WAT     H1 6237   4.013   6.066   3.771  0.0090  1.6080  0.5408
 1906WAT     H2 6238   3.876   6.083   3.709 -0.1711  3.7345  1.4364
 1907WAT      O 6239   4.486   0.354   0.050 -0.6351  0.1297 -0.0855
 1907WAT     H1 6240   4.457   0.382  -0.037 -1.2445  2.2760  0.7582
 1907WAT     H2 6241   4.562   0.298   0.032 -2.0411 -1.2939 -2.0701
 1908WAT      O 6242   4.276   0.296   4.775  0.5935 -0.1396 -0.0053
 1908WAT     H1 6243   4.230   0.214   4.794  0.9438 -0.3931 -0.2448
 1908WAT     H2 6244   4.329   0.277   4.698 -0.3454  0.7009 -0.8834
 1909WAT      O 6245   5.491   3.198   4.876  0.5368  0.1825  0.6046
 1909WAT     H1 6246   5.567   3.253   4.896  0.4662  0.0288  1.3028
 1909WAT     H2 6247   5.419   3.259   4.862  0.8159  0.3402 -0.2443
 1910WAT      O 6248   3.697   4.922   3.280  0.3747  0.0563 -0.3892
 1910WAT     H1 6249   3.721   4.980   3.208 -0.6691  0.0811 -0.7361
 1910WAT     H2 6250   3.725   4.968   3.358 -2.0151  1.9521 -0.5110
 1911WAT      O 6251   5.063   0.938   2.480  0.2750 -0.1121 -0.3636
 1911WAT     H1 6252   5.142   0.935   2.533 -0.5033 -0.1589  0.8379
 1911WAT     H2 6253   5.038   0.847   2.467  0.5946 -0.1084 -1.0227
 1912WAT      O 6254   3.593   5.595   1.805  0.3871 -0.0947 -0.1720
 1912WAT     H1 6255   3.574   5.507   1.838 -2.2930  1.1738  2.0442
 1912WAT     H2 6256   3.640   5.637   1.877 -0.8028  1.0855 -0.0444
 1913WAT      O 6257   4.232   4.446   2.975  0.1418 -0.2492 -0.1625
 1913WAT     H1 6258   4.169   4.480   3.038  1.4504  1.4782  0.2780
 1913WAT     H2 6259   4.318   4.464   3.015  0.9543 -2.5087 -0.7359
 1914WAT      O 6260   5.322   0.464   3.397 -0.5855 -0.0158 -0.2478
 1914WAT     H1 6261   5.237   0.424   3.381 -0.1473 -1.1421  0.1320
 1914WAT     H2 6262   5.303   0.538   3.455 -1.2437 -0.6125  0.3170
 1915WAT      O 6263   5.421   4.542   0.927 -0.4615 -0.4833 -0.2508
 1915WAT     H1 6264   5.462   4.523   1.011  1.3342 -0.5114 -1.0970
 1915WAT     H2 6265   5.440   4.466   0.873 -0.7364 -0.0316 -0.9961
 1916WAT      O 6266   5.647   5.082   2.218 -0.0705 -0.3395 -0.0455
 1916WAT     H1 6267   5.641   4.987   2.225  2.6358 -0.6216 -0.4963
 1916WAT     H2 6268   5.578   5.106   2.155 -2.2588 -1.6536  1.7076
 1917WAT      O 6269   4.783   0.557   2.200  0.3126 -0.3224  0.2030
 1917WAT     H1 6270   4.773   0.462   2.205  0.4805 -0.5221 -2.0665
 1917WAT     H2 6271   4.750   0.579   2.113  0.9945  1.5922  0.3961
 1918WAT      O 6272   4.198   2.186   2.354  0.1884  0.0041 -0.2028
 1918WAT     H1 6273   4.204   2.268   2.403 -1.3869  0.4240 -0.6483
 1918WAT     H2 6274   4.121   2.142   2.389 -0.7962  0.1675 -2.0324
 1919WAT      O 6275   3.074   5.341   2.518 -0.2471 -0.1451 -0.1318
 1919WAT     H1 6276   3.144   5.385   2.470 -0.3926  0.2455  0.0102
 1919WAT     H2 6277   3.048   5.269   2.461 -1.9398  1.5947 -1.7100
 1920WAT      O 6278   5.995   0.350   2.713 -0.0983 -0.3093  0.1735
 1920WAT     H1 6279   6.078   0.340   2.761  0.7345 -1.1313 -1.3804
 1920WAT     H2 6280   5.996   0.279   2.649 -0.9821  0.9929 -1.3423
 1921WAT      O 6281   4.092   0.631   3.089 -0.3025  0.3472  0.1964
 1921WAT     H1 6282   4.144   0.550   3.085 -0.5212  0.2451 -2.1941
 1921WAT     H2 6283   4.016   0.608   3.141 -0.4780 -1.1096 -0.6397
 1922WAT      O 6284   3.894   1.058   0.195  0.0732 -0.0565 -0.1955
 1922WAT     H1 6285   3.982   1.090   0.178  0.6649 -0.4259  1.8663
 1922WAT     H2 6286   3.871   1.096   0.280 -0.9548 -1.5103  0.2254
 1923WAT      O 6287   2.833   4.493   2.027 -0.3385  0.6737 -0.4307
 1923WAT     H1 6288   2.832   4.398   2.016  0.5070  0.4821  0.9226
 1923WAT     H2 6289   2.881   4.525   1.951 -0.9234  0.0523 -1.0736
 1924WAT      O 6290   3.708   3.498   1.212  0.4366  0.4056  0.4974
 1924WAT     H1 6291   3.801   3.478   1.210  0.1283 -1.3021  1.2604
 1924WAT     H2 6292   3.684   3.509   1.120  0.9784 -1.3967  0.1004
 1925WAT      O 6293   4.166   0.444   2.828 -0.2699  0.6429  0.3424
 1925WAT     H1 6294   4.251   0.401   2.818 -0.2475  1.0351 -1.3127
 1925WAT     H2 6295   4.172   0.523   2.776 -2.1590 -0.0812 -1.1110
 1926WAT      O 6296   3.597   6.007   1.965  0.6624  0.0089 -0.2555
 1926WAT     H1 6297   3.523   6.057   2.001 -0.8756  0.7449 -3.9892
 1926WAT     H2 6298   3.669   6.070   1.963  0.9148 -0.1539  1.6478
 1927WAT      O 6299   3.634   0.550   5.794  0.4199 -0.0341  0.2583
 1927WAT     H1 6300   3.573   0.603   5.743 -0.0486 -0.7072  0.0985
 1927WAT     H2 6301   3.675   0.612   5.854 -0.9229  0.3385  0.8385
 1928WAT      O 6302   4.746   0.666   0.609  0.1694  1.2322  0.2247
 1928WAT     H1 6303   4.658   0.696   0.586 -0.7518 -0.4187  1.3760
 1928WAT     H2 6304   4.774   0.726   0.678 -0.7878  0.7612  1.0527
 1929WAT      O 6305   3.498   5.686   4.077  0.2138  0.6831 -0.4344
 1929WAT     H1 6306   3.586   5.678   4.113  0.0176  1.2685  0.1969
 1929WAT     H2 6307   3.474   5.777   4.092 -0.3848  0.6052 -0.8801
 1930WAT      O 6308   2.743   5.382   5.297  0.2860 -0.1021 -0.0047
 1930WAT     H1 6309   2.799   5.337   5.360  0.1296  1.3122  1.2010
 1930WAT     H2 6310   2.793   5.459   5.270 -0.6522  0.6433  0.3259
 1931WAT      O 6311   4.065   3.095   1.335 -0.1962  0.1115  0.3048
 1931WAT     H1 6312   4.126   3.046   1.280  0.6497 -2.4074  3.1695
 1931WAT     H2 6313   3.987   3.040   1.340 -0.3837  0.4385  1.3173
 1932WAT      O 6314   4.758   4.404   0.950 -0.0973  0.0645 -0.6779
 1932WAT     H1 6315   4.821   4.334   0.934  0.1182  0.1219 -0.0992
 1932WAT     H2 6316   4.805   4.465   1.007  0.3337  1.5382 -2.5045
 1933WAT      O 6317   6.382   5.363   3.034  0.5347 -0.3857  0.2943
 1933WAT     H1 6318   6.300   5.412   3.028  1.4441  1.2230  0.5158
 1933WAT     H2 6319   6.380   5.324   3.121  0.0958 -0.1705  0.3832
 1934WAT      O 6320   3.293   6.123   1.391 -0.5480  0.0970 -0.1853
 1934WAT     H1 6321   3.269   6.133   1.299  0.5672 -1.2448 -0.6555
 1934WAT     H2 6322   3.231   6.179   1.438 -0.6697  1.3910 -1.7992
 1935WAT      O 6323   4.047   5.129   1.888 -0.1333 -0.9691  0.0526
 1935WAT     H1 6324   4.022   5.039   1.909 -0.1338 -0.9477  0.1465
 1935WAT     H2 6325   4.142   5.131   1.900  0.1231 -1.4175 -1.6734
 1936WAT      O 6326   4.207   0.278   2.059  0.0052  0.4799  0.4679
 1936WAT     H1 6327   4.128   0.263   2.008  0.5314 -1.5951  0.1550
 1936WAT     H2 6328   4.278   0.250   2.001  0.6459 -1.7459  2.1701
 1937WAT      O 6329   2.521   5.845   2.480 -0.5200  0.3564 -0.0232
 1937WAT     H1 6330   2.509   5.920   2.421  0.8224  1.8571  1.4829
 1937WAT     H2 6331   2.586   5.790   2.436 -0.4468  0.8114 -0.5012
 1938WAT      O 6332   2.512   3.866   2.642 -0.2052  0.0768  0.2101
 1938WAT     H1 6333   2.436   3.852   2.698  0.4123 -1.4072  0.7341
 1938WAT     H2 6334   2.573   3.796   2.667  1.7138  1.7332  0.4638
 1939WAT      O 6335   4.531   4.851   1.847  0.3987  0.5482 -0.5719
 1939WAT     H1 6336   4.545   4.796   1.770  1.3022  1.3702 -1.0139
 1939WAT     H2 6337   4.612   4.843   1.898  0.2940  0.9906 -0.3305
 1940WAT      O 6338   3.941   5.721   0.412 -0.2013 -0.9650 -0.0164
 1940WAT     H1 6339   3.919   5.631   0.437 -1.7159 -0.4022  0.7995
 1940WAT     H2 6340   3.862   5.753   0.369 -1.2549  1.2262  3.2145
 1941WAT      O 6341   4.007   4.996   1.045  0.2114  0.1652 -0.0574
 1941WAT     H1 6342   3.941   4.979   1.113  1.4440 -1.8633  0.7138
 1941WAT     H2 6343   4.026   5.090   1.054 -1.3887  0.4527  0.7662
 1942WAT      O 6344   6.218   5.462   2.167  1.0768  0.4932  0.3303
 1942WAT     H1 6345   6.308   5.484   2.192  1.0898  1.5171 -0.5415
 1942WAT     H2 6346   6.223   5.372   2.135  1.3724 -0.2346  2.2524
 1943WAT      O 6347   5.929   4.765   0.905 -0.5766 -0.1331  0.0196
 1943WAT     H1 6348   5.929   4.839   0.966 -2.7939  0.6028 -0.7643
 1943WAT     H2 6349   5.847   4.774   0.857 -1.0024 -3.1811 -0.0428
 1944WAT      O 6350   4.493   2.005   2.364 -0.4238  0.5748  0.0369
 1944WAT     H1 6351   4.508   1.933   2.303 -0.7959  0.7801 -0.2991
 1944WAT     H2 6352   4.408   2.040   2.340 -0.7001  0.4956  0.8415
 1945WAT      O 6353   4.540   5.343   4.370 -0.4285  0.3213 -0.1159
 1945WAT     H1 6354   4.599   5.271   4.348  0.0276  0.5443  0.3561
 1945WAT     H2 6355   4.452   5.309   4.352 -0.0682  0.8792 -3.4402
 1946WAT      O 6356   3.803   4.908   2.929  0.0797 -0.1827  0.5854
 1946WAT     H1 6357   3.767   4.994   2.949  0.3634 -0.4485  2.3955
 1946WAT     H2 6358   3.893   4.911   2.962  0.7116 -0.5998 -0.9750
 1947WAT      O 6359   3.101   5.478   5.758  0.0201 -0.4563 -0.1446
 1947WAT     H1 6360   3.179   5.471   5.813 -0.1701 -0.5906  0.1058
 1947WAT     H2 6361   3.121   5.551   5.699  0.9469 -1.4287 -1.0747
 1948WAT      O 6362   4.961   5.786   1.074  0.7994 -0.6559 -0.6671
 1948WAT     H1 6363   4.896   5.766   1.141 -0.1382  0.3870 -1.2289
 1948WAT     H2 6364   5.042   5.800   1.122  0.1979 -0.1876  0.2240
 1949WAT      O 6365   5.279   4.453   2.225 -0.6113 -0.5226  0.3502
 1949WAT     H1 6366   5.247   4.529   2.176  0.8619  0.9603  1.5886
 1949WAT     H2 6367   5.257   4.378   2.169 -2.9820  0.6804 -0.4708
 1950WAT      O 6368   5.143   5.766   1.817  0.0018 -0.5059  0.8055
 1950WAT     H1 6369   5.195   5.708   1.873  0.2831  0.1311  1.2272
 1950WAT     H2 6370   5.087   5.708   1.767 -0.4244 -1.0907  1.9314
 1951WAT      O 6371   3.793   5.174   5.999  0.5439 -0.9058 -0.5703
 1951WAT     H1 6372   3.699   5.187   6.003  0.6831 -0.1397  0.9904
 1951WAT     H2 6373   3.811   5.109   6.068  1.1332 -1.2521 -1.0347
 1952WAT      O 6374   4.029   0.065   0.073 -0.3567 -0.2790 -0.1962
 1952WAT     H1 6375   4.060   0.057  -0.017 -1.5604  0.8045 -0.7517
 1952WAT     H2 6376   3.941   0.028   0.072  0.0734 -1.3958  0.8452
 1953WAT      O 6377   3.021   0.802   0.279 -0.0737 -0.1137 -0.3000
 1953WAT     H1 6378   2.962   0.859   0.328 -0.6361  0.0842 -1.1868
 1953WAT     H2 6379   2.984   0.715   0.289  1.5342 -0.6072  2.2000
 1954WAT      O 6380   4.197   0.285   2.497  0.2984  0.1664 -0.4350
 1954WAT     H1 6381   4.156   0.371   2.509 -1.1892 -0.5569 -0.1561
 1954WAT     H2 6382   4.141   0.240   2.434  1.2861 -0.4711 -0.8870
 1955WAT      O 6383   4.253   0.473   1.838 -0.2718 -0.5554 -0.0800
 1955WAT     H1 6384   4.203   0.496   1.916  0.2980 -0.1572  0.1681
 1955WAT     H2 6385   4.332   0.432   1.871  0.1366 -0.0670 -0.4365
 1956WAT      O 6386   5.259   5.112   5.167  0.3657 -0.1682 -0.4967
 1956WAT     H1 6387   5.204   5.108   5.246  1.3876  1.2477  0.3476
 1956WAT     H2 6388   5.343   5.077   5.195  0.6872  0.1826 -1.0111
 1957WAT      O 6389   4.665   5.436   1.715 -0.3410 -0.2386  0.0767
 1957WAT     H1 6390   4.711   5.520   1.720 -0.3830 -0.0318 -2.0076
 1957WAT     H2 6391   4.595   5.443   1.779  0.2055  0.9553  0.5778
 1958WAT      O 6392   4.482   5.126   1.727 -0.2382 -0.0461  0.3356
 1958WAT     H1 6393   4.505   5.051   1.781  0.5485 -1.0787 -1.3714
 1958WAT     H2 6394   4.529   5.199   1.768  4.3230 -1.6017 -1.4833
 1959WAT      O 6395   4.300   3.849   5.885 -0.2171 -0.0576 -0.1514
 1959WAT     H1 6396   4.322   3.766   5.844  2.2564  0.5669 -0.2422
 1959WAT     H2 6397   4.349   3.915   5.836 -0.4873  1.2084  1.1736
 1960WAT      O 6398   3.819   5.682   1.140 -0.8014 -0.1459 -0.4206
 1960WAT     H1 6399   3.740   5.659   1.090 -1.3954  1.5008 -0.2810
 1960WAT     H2 6400   3.827   5.612   1.205 -1.6172 -0.8134 -1.0093
 1961WAT      O 6401   4.022   0.238   2.292 -0.2095 -0.1600 -0.2080
 1961WAT     H1 6402   4.106   0.226   2.248 -0.3775  0.2728 -0.6531
 1961WAT     H2 6403   3.978   0.154   2.283  0.3221 -0.5057  0.3456
 1962WAT      O 6404   4.504   2.009   4.286 -0.0830  0.2194 -0.0860
 1962WAT     H1 6405   4.503   2.001   4.382  0.7852 -0.1921 -0.1022
 1962WAT     H2 6406   4.591   2.042   4.265 -0.8163  1.9212 -0.6444
 1963WAT      O 6407   3.846   5.328   1.171 -0.1483  0.7195  0.7326
 1963WAT     H1 6408   3.932   5.295   1.146 -0.1673  1.6051 -0.6070
 1963WAT     H2 6409   3.864   5.391   1.241  0.0705 -0.5861  1.8941
 1964WAT      O 6410   2.233   4.019   1.184  0.8238  0.1394 -0.3023
 1964WAT     H1 6411   2.232   4.067   1.101  0.9812  0.4202 -0.1427
 1964WAT     H2 6412   2.144   3.987   1.194  0.8217  0.0370 -0.6185
 1965WAT      O 6413   3.849   0.187   3.221  0.0423 -0.0148  0.8606
 1965WAT     H1 6414   3.861   0.182   3.126  0.5205  1.6027  0.8052
 1965WAT     H2 6415   3.771   0.134   3.238 -0.2825 -0.0155 -0.4910
 1966WAT      O 6416   3.990   1.740   3.782  0.3508  0.1665  0.0318
 1966WAT     H1 6417   4.005   1.667   3.721  0.1485 -0.9091  1.2354
 1966WAT     H2 6418   4.077   1.769   3.807  0.5912 -2.2553  2.5175
 1967WAT      O 6419   4.941   4.207   0.309 -0.4142  0.0273  0.2049
 1967WAT     H1 6420   4.937   4.240   0.219 -0.0662  0.7449  0.4434
 1967WAT     H2 6421   4.850   4.203   0.337 -0.4579  1.2999  0.3351
 1968WAT      O 6422   4.355   5.625   2.728  0.5565  0.0829  0.3825
 1968WAT     H1 6423   4.281   5.642   2.786  0.2527  0.5076 -0.1218
 1968WAT     H2 6424   4.401   5.709   2.722  1.3471 -0.2883  1.0508
 1969WAT      O 6425   3.921   0.420   4.325  0.4910  0.3800  0.6761
 1969WAT     H1 6426   3.837   0.411   4.280  0.8305  0.2826  0.0600
 1969WAT     H2 6427   3.978   0.355   4.284  0.6192 -0.1667  1.7002
 1970WAT      O 6428   4.615   5.859   0.536  0.0372  0.6289 -0.4845
 1970WAT     H1 6429   4.673   5.796   0.578  0.5578  1.4351  0.0495
 1970WAT     H2 6430   4.563   5.895   0.608  0.1139  1.1776 -0.6986
 1971WAT      O 6431   4.746   1.260   0.935 -0.7330 -0.2838  0.6355
 1971WAT     H1 6432   4.737   1.172   0.897 -0.2024  0.0988 -0.4418
 1971WAT     H2 6433   4.722   1.249   1.027 -0.4984 -1.5927  0.5677
 1972WAT      O 6434   5.059   5.264   2.418  0.3253  0.5220  0.4715
 1972WAT     H1 6435   5.070   5.170   2.433 -0.9537  0.2172 -0.3451
 1972WAT     H2 6436   5.036   5.300   2.504 -0.1701 -0.0773  0.5930
 1973WAT      O 6437   5.464   4.733   3.261 -0.1253  0.2004 -0.5105
 1973WAT     H1 6438   5.505   4.668   3.317 -1.7816 -0.5841 -0.1413
 1973WAT     H2 6439   5.373   4.704   3.252 -0.5656  1.7110 -1.4805
 1974WAT      O 6440   4.416   2.873   1.737  0.9859  0.5929 -0.2912
 1974WAT     H1 6441   4.341   2.900   1.684 -0.4829 -2.3552  0.0565
 1974WAT     H2 6442   4.460   2.807   1.683 -0.1376 -1.9636  1.6586
 1975WAT      O 6443   3.580   0.782   0.887 -0.2376 -0.1483  0.1213
 1975WAT     H1 6444   3.609   0.691   0.881  0.3876  0.1292 -1.5778
 1975WAT     H2 6445   3.511   0.789   0.821 -0.4796  0.5455  0.4418
 1976WAT      O 6446   2.927   1.495   2.596  0.0102  0.5425 -0.0479
 1976WAT     H1 6447   2.948   1.555   2.667 -0.0581 -0.7986  1.1277
 1976WAT     H2 6448   2.910   1.411   2.638 -1.0480 -0.0554 -1.5495
 1977WAT      O 6449   4.705   0.303   0.417 -0.0118 -0.0938  0.5344
 1977WAT     H1 6450   4.734   0.284   0.506  0.9426 -1.0303  0.0403
 1977WAT     H2 6451   4.655   0.226   0.390  1.8909 -0.9679 -0.6452
 1978WAT      O 6452   5.863   5.431   1.500  0.2944 -0.3152  0.3744
 1978WAT     H1 6453   5.780   5.438   1.548  0.5680  0.5165  0.7421
 1978WAT     H2 6454   5.842   5.376   1.424 -0.9618  1.0291 -0.2991
 1979WAT      O 6455   6.020   4.322   2.264  0.9033 -0.3639  0.0806
 1979WAT     H1 6456   5.959   4.289   2.198 -0.3937 -1.6173  1.8108
 1979WAT     H2 6457   6.022   4.253   2.331  0.1942  1.8738  2.5737
 1980WAT      O 6458   4.627   0.980   3.316  0.3512  0.0878  0.1089
 1980WAT     H1 6459   4.616   1.075   3.308 -1.2026  0.2743  2.9546
 1980WAT     H2 6460   4.663   0.967   3.404  0.2050 -1.9723 -0.0765
 1981WAT      O 6461   4.679   5.704   1.263  0.4225 -0.5303 -0.7206
 1981WAT     H1 6462   4.656   5.620   1.223 -2.5577  0.6807 -1.8696
 1981WAT     H2 6463   4.608   5.721   1.325  1.5589  0.6694  0.3242
 1982WAT      O 6464   4.201   0.751   3.421  0.1867  0.3625  0.4588
 1982WAT     H1 6465   4.202   0.712   3.334 -1.2512 -0.3266  0.7140
 1982WAT     H2 6466   4.293   0.765   3.442  0.5584  0.8541 -1.2910
 1983WAT      O 6467   5.981   4.701   2.654 -0.1289  0.2550  0.3649
 1983WAT     H1 6468   5.931   4.783   2.652 -1.4312 -0.4469  1.9542
 1983WAT     H2 6469   5.938   4.645   2.590 -0.2344  0.2652  0.4272
 1984WAT      O 6470   3.896   1.559   1.756 -0.0234 -0.7491  0.3708
 1984WAT     H1 6471   3.956   1.502   1.803 -3.4527 -2.7985  2.6913
 1984WAT     H2 6472   3.849   1.607   1.824 -1.2210  0.5930 -1.2881
 1985WAT      O 6473   3.034   0.397   2.883 -0.3884 -0.5301  0.7089
 1985WAT     H1 6474   3.115   0.447   2.878 -0.7201  0.3109  2.8001
 1985WAT     H2 6475   3.028   0.352   2.799  0.4936  2.0539 -0.8233
 1986WAT      O 6476   3.541   1.433   0.995 -0.0754  0.3498 -0.0354
 1986WAT     H1 6477   3.553   1.480   1.077 -0.3029  1.2106 -0.4898
 1986WAT     H2 6478   3.529   1.342   1.022 -2.2608  0.8922  1.0590
 1987WAT      O 6479   4.621   4.308   2.425  0.4475  0.1181 -0.5354
 1987WAT     H1 6480   4.683   4.272   2.489 -0.5293 -0.6621  0.0037
 1987WAT     H2 6481   4.561   4.361   2.477  0.5656  0.7483 -1.0334
 1988WAT      O 6482   4.388   5.530   0.451  0.2416  0.5204  0.4051
 1988WAT     H1 6483   4.467   5.488   0.486  0.8381  0.0399 -1.4073
 1988WAT     H2 6484   4.322   5.517   0.518  1.3784 -0.1576  1.4325
 1989WAT      O 6485   3.806   5.459   0.445 -0.3186  0.4272  0.3600
 1989WAT     H1 6486   3.844   5.416   0.521  0.4781 -2.0285 -1.3164
 1989WAT     H2 6487   3.711   5.452   0.458 -0.1898 -0.5633  0.8385
 1990WAT      O 6488   2.142   0.813   0.774  0.0664 -0.1176  0.2329
 1990WAT     H1 6489   2.159   0.720   0.787 -1.5529 -0.5821 -0.7025
 1990WAT     H2 6490   2.212   0.857   0.823  0.3349 -1.8018  1.4664
 1991WAT      O 6491   3.458   6.028   4.764  0.1479  0.0758 -0.1831
 1991WAT     H1 6492   3.530   5.967   4.770  0.9317  0.9384 -0.5517
 1991WAT     H2 6493   3.497   6.114   4.780 -0.8651  0.5183  0.0307
 1992WAT      O 6494   3.172   5.493   1.226 -0.2881  0.3698  0.3042
 1992WAT     H1 6495   3.160   5.582   1.257  0.9737  1.2060 -1.4807
 1992WAT     H2 6496   3.103   5.480   1.161 -0.7398 -0.1333  0.8674
 1993WAT      O 6497   3.613   6.027   2.647 -0.3708 -0.0340  0.0031
 1993WAT     H1 6498   3.675   6.033   2.575  0.0110 -1.5730  0.1613
 1993WAT     H2 6499   3.668   6.027   2.726 -0.5675 -1.0750  0.1573
 1994WAT      O 6500   6.081   4.078   2.435 -0.1425  0.1688 -0.0873
 1994WAT     H1 6501   6.147   4.027   2.387  1.0828  1.1994  0.4585
 1994WAT     H2 6502   6.089   4.048   2.526 -0.8524 -0.1076 -0.1030
 1995WAT      O 6503   3.111   5.290   2.979  0.3238 -0.2451 -0.5516
 1995WAT     H1 6504   3.095   5.197   2.965 -2.3151 -0.1392  1.0389
 1995WAT     H2 6505   3.069   5.333   2.905 -2.6328 -0.2354  0.9573
 1996WAT      O 6506   3.953   0.066   2.730  0.1292 -0.0498  0.0820
 1996WAT     H1 6507   3.948  -0.029   2.729  0.8624 -0.0947 -0.1150
 1996WAT     H2 6508   4.047   0.085   2.729  0.0234  0.6860 -2.0848
 1997WAT      O 6509   3.416   5.887   0.257 -0.3631  0.2417  1.1341
 1997WAT     H1 6510   3.461   5.962   0.297 -1.0765  0.2508  1.9402
 1997WAT     H2 6511   3.355   5.858   0.323 -0.5659 -0.6504  0.5666
 1998WAT      O 6512   3.646   6.111   3.253 -0.4015  0.2046  0.7462
 1998WAT     H1 6513   3.617   6.021   3.240  0.5281 -0.3172  2.1248
 1998WAT     H2 6514   3.632   6.128   3.346  0.4987  1.0921  0.7412
 1999WAT      O 6515   2.913   1.006   2.203 -0.0038 -0.1271  0.0335
 1999WAT     H1 6516   2.869   0.958   2.133  1.0025  2.4385 -2.5729
 1999WAT     H2 6517   2.862   1.087   2.213  1.3481  0.7185  0.3982
 2000WAT      O 6518   4.534   4.063   2.139  0.9173 -0.4442  0.1780
 2000WAT     H1 6519   4.446   4.054   2.103  0.4878  1.0954  0.7592
 2000WAT     H2 6520   4.537   4.001   2.212 -0.2068  0.4666  1.0368
 2001WAT      O 6521   3.094   4.790   0.979 -0.2079  0.0010  0.4311
 2001WAT     H1 6522   3.177   4.838   0.974 -0.0628 -0.3637 -3.6806
 2001WAT     H2 6523   3.028   4.853   0.950 -1.0341 -0.4096  1.3631
 2002WAT      O 6524   4.738   0.274   2.191 -0.1562  0.1625 -0.5973
 2002WAT     H1 6525   4.784   0.221   2.126 -0.5971  1.0903 -1.7001
 2002WAT     H2 6526   4.646   0.248   2.182  0.0046 -1.1723  1.1008
 2003WAT      O 6527   3.754   3.859   2.668  0.2965  0.4338  0.1133
 2003WAT     H1 6528   3.719   3.927   2.725  0.2129  0.5280 -0.0488
 2003WAT     H2 6529   3.781   3.789   2.727 -0.3855  0.2573  0.2249
 2004WAT      O 6530   4.889   0.142   1.649 -0.3560 -0.1329 -0.1820
 2004WAT     H1 6531   4.902   0.096   1.732 -0.7448 -0.5570 -0.3535
 2004WAT     H2 6532   4.895   0.073   1.582 -1.3677 -0.0007 -0.4132
 2005WAT      O 6533   6.506   5.629   3.725  0.1500  0.1968  0.7096
 2005WAT     H1 6534   6.461   5.648   3.807 -0.8344 -0.1577  0.2740
 2005WAT     H2 6535   6.591   5.594   3.751 -0.0140  0.4078  1.5633
 2006WAT      O 6536   4.618   4.763   0.819 -0.2346 -0.0072 -0.4769
 2006WAT     H1 6537   4.706   4.729   0.806  0.0433  1.1704 -2.0925
 2006WAT     H2 6538   4.595   4.803   0.734 -1.5021  1.4973  0.5049
 2007WAT      O 6539   4.300   3.594   5.779  0.4821 -0.1282 -0.0844
 2007WAT     H1 6540   4.231   3.578   5.715  0.2602 -0.2784  0.1939
 2007WAT     H2 6541   4.278   3.539   5.853  0.7750 -0.0019  0.0995
 2008WAT      O 6542   4.410   5.905   3.517 -0.8546 -0.1582  0.1881
 2008WAT     H1 6543   4.354   5.952   3.455 -2.4092 -0.1440  1.5501
 2008WAT     H2 6544   4.451   5.836   3.464 -0.8521  0.8626 -1.1893
 2009WAT      O 6545   5.167   3.601   3.710 -0.7178  0.2610 -0.1530
 2009WAT     H1 6546   5.112   3.679   3.709 -2.3166 -0.7714  1.5432
 2009WAT     H2 6547   5.112   3.533   3.750  1.0903 -1.3737 -0.3029
 2010WAT      O 6548   4.530   5.922   1.928 -0.2985  0.2521 -0.4325
 2010WAT     H1 6549   4.479   5.968   1.862 -0.9423  1.1983  0.6965
 2010WAT     H2 6550   4.468   5.863   1.971  0.1176 -0.3599 -0.6433
 2011WAT      O 6551   4.159   5.298   2.858  0.5457  0.1131 -0.6219
 2011WAT     H1 6552   4.156   5.232   2.788 -0.8098 -0.2669 -0.2430
 2011WAT     H2 6553   4.122   5.377   2.818  1.4144  0.4119 -0.8408
 2012WAT      O 6554   4.068   4.461   1.998  0.4917  0.6779 -0.2019
 2012WAT     H1 6555   4.072   4.412   1.916  0.4618  0.6134 -0.1649
 2012WAT     H2 6556   3.979   4.496   2.001  0.2727  0.1103  0.1300
 2013WAT      O 6557   3.320   0.673   3.264 -0.4180  0.3822  0.1479
 2013WAT     H1 6558   3.340   0.702   3.175 -1.5565  0.4643 -0.1009
 2013WAT     H2 6559   3.246   0.613   3.253  0.3688 -0.7605  0.9058
 2014WAT      O 6560   3.562   6.126   1.711  0.2191  0.1842  0.3556
 2014WAT     H1 6561   3.585   6.088   1.796  1.6475  0.4845  0.1211
 2014WAT     H2 6562   3.550   6.219   1.729 -0.7567  0.0493  0.4532
 2015WAT      O 6563   3.203   4.732   3.786 -0.1870  0.1584  0.6999
 2015WAT     H1 6564   3.201   4.651   3.734 -1.5186  1.1190 -0.8567
 2015WAT     H2 6565   3.248   4.708   3.866  1.0021 -1.6852 -0.4507
 2016WAT      O 6566   4.341   4.669   5.250  0.4485  0.3187 -0.1006
 2016WAT     H1 6567   4.333   4.578   5.222  0.0059  0.5297 -0.6680
 2016WAT     H2 6568   4.316   4.720   5.173 -1.3617  0.9188  0.8411
 2017WAT      O 6569   4.140   5.853   0.930  0.0355 -0.2889  0.2283
 2017WAT     H1 6570   4.205   5.811   0.987  3.0668 -0.3245 -2.9188
 2017WAT     H2 6571   4.103   5.781   0.879  0.3040  0.1120 -0.5509
 2018WAT      O 6572   4.280   5.527   0.720 -0.1184  0.3584  0.4841
 2018WAT     H1 6573   4.221   5.602   0.707 -2.1460 -0.9288  1.6601
 2018WAT     H2 6574   4.358   5.565   0.761 -0.7131  1.9454  0.2221
 2019WAT      O 6575   4.925   0.761   3.975  0.0722 -0.0320  0.0598
 2019WAT     H1 6576   4.986   0.808   4.032 -0.8517  2.3589 -0.7884
 2019WAT     H2 6577   4.841   0.767   4.021 -0.3295  0.3628 -0.7166
 2020WAT      O 6578   4.275   4.065   2.912 -0.1394 -0.3532  0.2700
 2020WAT     H1 6579   4.230   3.989   2.874  1.7121 -0.3848 -2.0177
 2020WAT     H2 6580   4.205   4.128   2.928 -1.3837 -1.5363 -0.2790
 2021WAT      O 6581   3.181   2.955   5.909 -0.3228  0.2032 -0.4203
 2021WAT     H1 6582   3.193   2.877   5.963 -1.6167 -0.2606 -0.7782
 2021WAT     H2 6583   3.089   2.955   5.886 -0.6227  2.4414  0.4669
 2022WAT      O 6584   3.850   4.763   3.644  0.3099  0.4122 -0.3017
 2022WAT     H1 6585   3.780   4.828   3.654 -0.7145 -0.5936 -0.7080
 2022WAT     H2 6586   3.806   4.679   3.651  1.4618 -0.2557 -0.7687
 2023WAT      O 6587   5.049   3.181   3.967 -0.1245 -0.4264 -0.1112
 2023WAT     H1 6588   5.053   3.164   4.062  0.7496  0.3360  0.0072
 2023WAT     H2 6589   5.071   3.274   3.959 -1.6258 -0.1193 -0.9601
 2024WAT      O 6590   3.065   0.542   3.318 -0.0338  0.7578  0.5999
 2024WAT     H1 6591   3.103   0.607   3.376  0.9287  0.0178  0.8331
 2024WAT     H2 6592   2.975   0.570   3.305  0.8553  3.2313 -0.8726
 2025WAT      O 6593   4.741   5.839   0.304 -0.0848  0.3302 -0.5255
 2025WAT     H1 6594   4.744   5.747   0.280  0.0194 -0.0253  0.8351
 2025WAT     H2 6595   4.665   5.848   0.361 -0.2578  1.1532 -0.8535
 2026WAT      O 6596   4.407   0.233   0.282 -0.1764 -0.2488 -0.0778
 2026WAT     H1 6597   4.444   0.292   0.216  0.8462 -1.7379 -0.9322
 2026WAT     H2 6598   4.415   0.280   0.365  1.0539  0.6095 -0.6560
 2027WAT      O 6599   5.741   1.772   4.818 -0.3879  0.0747 -0.4007
 2027WAT     H1 6600   5.680   1.722   4.872  0.7687 -0.3550  0.5457
 2027WAT     H2 6601   5.718   1.864   4.835  0.0885 -0.0485  0.9941
 2028WAT      O 6602   4.312   4.769   1.199  0.0942  0.1178 -0.3998
 2028WAT     H1 6603   4.323   4.864   1.201 -0.6890  0.2247 -0.6998
 2028WAT     H2 6604   4.400   4.735   1.183  0.5734  0.7347  0.7459
 2029WAT      O 6605   6.430   3.755   5.656  0.1603 -0.4258 -0.2236
 2029WAT     H1 6606   6.385   3.677   5.626  1.4298 -1.1809 -0.2351
 2029WAT     H2 6607   6.394   3.826   5.602 -0.6315 -1.0736 -0.5609
 2030WAT      O 6608   4.134   5.157   0.431  0.0383  0.1511  0.5339
 2030WAT     H1 6609   4.118   5.163   0.525 -1.0569  0.6449  0.3250
 2030WAT     H2 6610   4.126   5.063   0.412  1.0519 -0.0646  1.0419
 2031WAT      O 6611   1.897   5.160   0.295 -0.5892 -0.1456  0.1743
 2031WAT     H1 6612   1.867   5.148   0.204 -1.1374  2.4057 -0.0412
 2031WAT     H2 6613   1.986   5.194   0.286 -0.1600 -1.0951  0.6664
 2032WAT      O 6614   4.645   0.161   5.707 -0.0249  0.0214 -0.2277
 2032WAT     H1 6615   4.697   0.122   5.777 -0.3461 -0.3750 -0.2099
 2032WAT     H2 6616   4.560   0.117   5.712 -0.5597  1.0687  0.1012
 2033WAT      O 6617   5.590   3.838   2.275  0.2977  0.0434 -0.7647
 2033WAT     H1 6618   5.632   3.754   2.295 -0.0904  0.0119 -0.0306
 2033WAT     H2 6619   5.514   3.814   2.222  1.2884  0.1177 -2.2690
 2034WAT      O 6620   5.368   3.793   5.979  0.4114 -0.3940 -0.3394
 2034WAT     H1 6621   5.362   3.883   6.011 -0.7133 -0.2515 -0.8827
 2034WAT     H2 6622   5.324   3.795   5.894 -0.7683 -1.7012  0.1865
 2035WAT      O 6623   4.002   4.856   1.913  0.1595 -0.2339 -0.3262
 2035WAT     H1 6624   4.088   4.820   1.891  0.1343 -2.3514  2.4153
 2035WAT     H2 6625   3.946   4.779   1.923 -0.9101  0.7463  2.0147
 2036WAT      O 6626   3.109   5.011   0.661  0.1404 -0.8577 -0.0284
 2036WAT     H1 6627   3.108   5.100   0.624 -1.6162 -1.0945 -0.6278
 2036WAT     H2 6628   3.140   4.956   0.590 -2.3432 -1.1838 -0.9594
 2037WAT      O 6629   3.601   4.294   1.770 -0.0028 -0.3658 -0.0495
 2037WAT     H1 6630   3.571   4.226   1.708  1.3043 -0.8407 -0.1810
 2037WAT     H2 6631   3.520   4.340   1.795 -0.7044 -0.9074 -1.2196
 2038WAT      O 6632   5.293   4.590   5.335  0.0482  0.0380 -0.3958
 2038WAT     H1 6633   5.247   4.516   5.374  1.5695 -2.0366 -2.3038
 2038WAT     H2 6634   5.380   4.588   5.374 -0.4320  2.0633  0.9301
 2039WAT      O 6635   5.088   5.479   1.147 -0.2127  0.2837 -0.0532
 2039WAT     H1 6636   5.073   5.534   1.070  0.8861  0.0273 -0.4800
 2039WAT     H2 6637   5.110   5.393   1.111 -0.3347 -0.0132  0.5654
 2040WAT      O 6638   3.792   4.563   0.667 -0.0767 -0.5210 -0.0051
 2040WAT     H1 6639   3.803   4.469   0.652 -1.5849 -0.9334  1.1546
 2040WAT     H2 6640   3.813   4.575   0.760 -2.1526 -0.1929  0.4876
 2041WAT      O 6641   3.911   5.802   0.085  0.0549 -0.4458 -0.1495
 2041WAT     H1 6642   3.920   5.722   0.034 -2.1865  0.2309 -1.7647
 2041WAT     H2 6643   3.820   5.801   0.115  0.2172  1.0945  0.4903
 2042WAT      O 6644   4.396   3.669   0.314 -0.1736 -0.2785  0.2547
 2042WAT     H1 6645   4.309   3.639   0.341 -0.9675  0.9772 -0.7700
 2042WAT     H2 6646   4.378   3.730   0.242  1.6304 -1.0838 -0.9499
 2043WAT      O 6647   2.637   0.869   0.020 -0.5039 -0.3960  0.1789
 2043WAT     H1 6648   2.726   0.849  -0.009 -0.2486 -0.8635  1.2600
 2043WAT     H2 6649   2.582   0.804  -0.023 -0.3734  0.0511 -0.6952
 2044WAT      O 6650   4.776   3.674   1.914 -0.2901 -0.0376 -0.3979
 2044WAT     H1 6651   4.825   3.631   1.984  0.1307 -1.8161 -1.7197
 2044WAT     H2 6652   4.712   3.609   1.886 -1.0658  0.9842 -1.0563
 2045WAT      O 6653   3.211   1.570   0.104 -0.1761 -0.0934 -0.5094
 2045WAT     H1 6654   3.182   1.479   0.096  0.8486 -0.3277 -1.8551
 2045WAT     H2 6655   3.248   1.575   0.192 -1.8818 -0.4568  0.2893
 2046WAT      O 6656   5.336   1.063   4.709  0.0666  0.0913  0.3182
 2046WAT     H1 6657   5.364   1.137   4.762  0.3584 -0.0911  0.4166
 2046WAT     H2 6658   5.269   1.019   4.762 -0.5246  0.6132  0.0181
 2047WAT      O 6659   6.088   4.132   0.371  0.2238  0.0879  0.4871
 2047WAT     H1 6660   6.103   4.058   0.430  2.2586 -1.0610 -1.3490
 2047WAT     H2 6661   6.154   4.196   0.396 -0.5507  0.6878  1.0629
 2048WAT      O 6662   4.756   4.105   1.418  0.1091  0.3227  0.2174
 2048WAT     H1 6663   4.751   4.173   1.485 -3.7086  2.2115 -1.6304
 2048WAT     H2 6664   4.687   4.043   1.441 -1.2961  1.0144 -1.8105
 2049WAT      O 6665   4.219   0.412   5.445  0.5696  0.0229  0.1529
 2049WAT     H1 6666   4.234   0.341   5.507  0.3074 -0.6181 -0.4994
 2049WAT     H2 6667   4.234   0.492   5.495 -0.3455 -0.4615  1.2342
 2050WAT      O 6668   4.700   5.110   0.176  0.4260 -0.6342 -0.8543
 2050WAT     H1 6669   4.652   5.047   0.230 -0.1779 -0.2637 -0.9446
 2050WAT     H2 6670   4.633   5.170   0.145  1.1451  0.7137  0.1093
 2051WAT      O 6671   4.269   0.292   5.906 -0.1245 -0.2005 -0.7246
 2051WAT     H1 6672   4.213   0.369   5.895  2.0891  1.5772 -0.1660
 2051WAT     H2 6673   4.297   0.296   5.997 -0.9508 -2.4447 -0.3030
 2052WAT      O 6674   4.078   5.564   1.047  0.4096 -0.1494  0.6771
 2052WAT     H1 6675   4.037   5.499   0.990  1.8672  0.4571 -1.1706
 2052WAT     H2 6676   4.005   5.607   1.092 -0.9252  0.1705 -1.6562
 2053WAT      O 6677   4.683   0.421   5.239 -0.1485  0.5377 -0.0788
 2053WAT     H1 6678   4.662   0.344   5.291 -0.1460  0.0985 -0.7179
 2053WAT     H2 6679   4.754   0.464   5.287  1.1261 -0.8539 -0.6270
 2054WAT      O 6680   5.087   5.390   0.071  0.0575 -0.0709  0.2729
 2054WAT     H1 6681   5.006   5.346   0.045 -0.2024 -1.3631  2.9126
 2054WAT     H2 6682   5.099   5.458   0.005 -1.9105 -1.3069 -1.5139
 2055WAT      O 6683   5.058   3.494   1.630  0.4248 -0.0452  0.2770
 2055WAT     H1 6684   5.056   3.577   1.677  1.0027  0.7372 -1.0390
 2055WAT     H2 6685   4.987   3.499   1.567 -1.1368 -1.5862  1.7954
 2056WAT      O 6686   6.417   3.935   0.555 -0.5677  0.0983 -0.3221
 2056WAT     H1 6687   6.397   3.991   0.480  1.8737  1.2186 -0.2449
 2056WAT     H2 6688   6.499   3.971   0.590  0.5132 -2.8235  0.4327
 2057WAT      O 6689   2.452   6.043   0.210  0.1608  0.0313  0.5720
 2057WAT     H1 6690   2.436   6.137   0.197  1.2553  0.1113 -0.2727
 2057WAT     H2 6691   2.424   6.002   0.128 -0.5538 -0.4234  1.0327
 2058WAT      O 6692   2.905   5.980   0.800  1.0432  0.4532 -0.0600
 2058WAT     H1 6693   2.990   5.940   0.817  1.0697  0.7724  0.5928
 2058WAT     H2 6694   2.889   5.963   0.707  1.6204  0.0202 -0.0889
 2059WAT      O 6695   1.540   2.279   5.637  0.0147  0.1916  0.7794
 2059WAT     H1 6696   1.565   2.355   5.689 -0.4169 -0.3786  1.8336
 2059WAT     H2 6697   1.592   2.287   5.557 -0.7282  2.1174  0.4300
 2060WAT      O 6698   3.729   5.804   1.495  0.0280 -0.1010 -0.5921
 2060WAT     H1 6699   3.676   5.882   1.476 -0.4573 -0.1094  0.6356
 2060WAT     H2 6700   3.667   5.732   1.492 -0.1419 -0.0748  1.1844
 2061WAT      O 6701   4.358   5.073   1.237  0.1379  0.6708 -0.0761
 2061WAT     H1 6702   4.437   5.068   1.291  0.9299  0.3316 -1.2410
 2061WAT     H2 6703   4.288   5.092   1.300  0.9990  0.1029  1.0980
 2062WAT      O 6704   5.525   4.321   5.585  0.4096 -0.5139 -0.3060
 2062WAT     H1 6705   5.493   4.244   5.633  0.2270 -0.4367 -0.3038
 2062WAT     H2 6706   5.608   4.292   5.547  0.2530 -0.7699 -0.4542
 2063WAT      O 6707   3.829   4.849   1.240 -0.5490  0.2509  0.0932
 2063WAT     H1 6708   3.894   4.781   1.257 -1.0867 -0.4115 -0.4634
 2063WAT     H2 6709   3.809   4.885   1.327  1.7736  1.6406  0.1432
 2064WAT      O 6710   5.198   4.577   0.594  0.3848 -0.3651 -0.1900
 2064WAT     H1 6711   5.129   4.637   0.566  0.7884  0.4903  0.5768
 2064WAT     H2 6712   5.183   4.497   0.544 -0.2727  0.3152 -1.1051
 2065WAT      O 6713   6.059   4.487   0.586  0.2225 -0.3249 -0.1402
 2065WAT     H1 6714   5.990   4.552   0.576 -0.4030 -1.2043 -2.1575
 2065WAT     H2 6715   6.103   4.510   0.668 -1.8332  0.8239  0.7048
 2066WAT      O 6716   5.311   5.612   1.283 -0.4021 -0.1189 -0.6272
 2066WAT     H1 6717   5.372   5.655   1.224 -0.6195 -0.5877 -1.1932
 2066WAT     H2 6718   5.263   5.550   1.228 -1.0271 -0.1241 -0.0864
 2067WAT      O 6719   3.321   5.370   0.284  0.0756  0.0256  0.0918
 2067WAT     H1 6720   3.370   5.302   0.331 -0.0287  0.2863  0.5761
 2067WAT     H2 6721   3.237   5.329   0.265 -0.4906  0.4625  1.5564
 2068WAT      O 6722   3.572   1.150   5.840 -0.2832 -0.5317 -0.3762
 2068WAT     H1 6723   3.596   1.075   5.786 -0.2457 -0.2894 -0.7040
 2068WAT     H2 6724   3.652   1.174   5.885 -0.2252 -0.5180 -0.4859
 2069WAT      O 6725   4.785   4.739   1.420  0.1796 -0.2849  0.0334
 2069WAT     H1 6726   4.804   4.660   1.370 -1.5606  0.3187 -1.7103
 2069WAT     H2 6727   4.865   4.791   1.414  0.4786 -0.8367 -0.9671
 2070WAT      O 6728   5.713   5.270   1.308  0.0194 -0.1339  0.0297
 2070WAT     H1 6729   5.652   5.281   1.381  0.9685 -1.1760  1.0218
 2070WAT     H2 6730   5.657   5.268   1.230 -1.1290 -0.2230  0.8312
 2071WAT      O 6731   5.682   4.125   0.336 -0.1220  0.0019  0.2804
 2071WAT     H1 6732   5.676   4.113   0.242  1.1144 -2.2236  0.4016
 2071WAT     H2 6733   5.765   4.171   0.349  0.2038 -0.5683  0.2910
 2072WAT      O 6734   3.007   2.348   5.419 -0.1804 -0.2177 -0.5191
 2072WAT     H1 6735   2.938   2.327   5.482  0.7073  0.5385  0.7428
 2072WAT     H2 6736   3.086   2.358   5.472  0.0888  3.1981 -1.3713
 2073WAT      O 6737   5.734   4.595   5.051 -0.1021  0.1936 -0.0200
 2073WAT     H1 6738   5.646   4.603   5.088  0.2460 -1.8843  1.4113
 2073WAT     H2 6739   5.768   4.513   5.087  2.7670  1.3504  0.1939
 2074WAT      O 6740   4.165   0.181   0.961  0.1677 -0.4250 -0.4734
 2074WAT     H1 6741   4.141   0.090   0.946  0.3350 -0.4940 -0.3307
 2074WAT     H2 6742   4.169   0.220   0.874  1.6789 -0.9611 -0.6828
 2075WAT      O 6743   6.155   3.903   0.656  0.7416  0.0783 -0.0194
 2075WAT     H1 6744   6.238   3.908   0.608  0.6928 -0.4171 -0.1568
 2075WAT     H2 6745   6.164   3.825   0.711  0.9141  0.8001  1.0031
 2076WAT      O 6746   5.981   3.320   5.669 -0.4397 -0.1615 -0.6151
 2076WAT     H1 6747   5.999   3.412   5.683  0.0337 -0.4883  1.0838
 2076WAT     H2 6748   6.043   3.274   5.725 -2.2860 -1.4633  0.4841
 2077WAT      O 6749   3.952   0.276   0.285 -0.1549 -0.3037 -0.0269
 2077WAT     H1 6750   3.971   0.343   0.219  0.0261 -0.8231 -0.5090
 2077WAT     H2 6751   3.997   0.197   0.253 -1.1107 -0.9003  0.0523
 2078WAT      O 6752   3.083   3.331   5.603 -0.0035 -0.3876 -0.2031
 2078WAT     H1 6753   3.016   3.285   5.552 -0.1504  0.1236 -0.4836
 2078WAT     H2 6754   3.145   3.263   5.630  0.1691 -0.6364 -1.2122
 2079WAT      O 6755   3.667   5.272   5.603 -0.3405 -0.1627  0.2104
 2079WAT     H1 6756   3.668   5.176   5.601  0.2291 -0.1989  1.5344
 2079WAT     H2 6757   3.600   5.293   5.668  1.6771  0.2471  2.2853
 2080WAT      O 6758   5.564   4.361   5.924 -0.2376  0.3009 -0.2310
 2080WAT     H1 6759   5.613   4.374   6.005 -0.0441 -0.5142 -0.2001
 2080WAT     H2 6760   5.491   4.421   5.929  0.6589  1.4143 -0.1883
 2081WAT      O 6761   5.238   3.200   2.313  0.2964 -0.2668 -0.4921
 2081WAT     H1 6762   5.326   3.180   2.345 -0.3993 -0.6391  1.3162
 2081WAT     H2 6763   5.220   3.131   2.249  1.0722 -0.5590 -0.4130
 2082WAT      O 6764   2.242   4.562   0.936  0.5661  0.0657 -0.2857
 2082WAT     H1 6765   2.247   4.653   0.909 -1.5137 -0.1054 -1.5253
 2082WAT     H2 6766   2.182   4.522   0.872  0.7902 -1.9690  0.6996
 2083WAT      O 6767   5.098   3.622   4.781 -0.3208  0.5832 -0.3680
 2083WAT     H1 6768   5.061   3.707   4.756 -0.1957  0.1217 -2.2811
 2083WAT     H2 6769   5.178   3.645   4.828 -1.3453  1.5304  1.0025
 2084WAT      O 6770   4.342   5.617   5.059  0.0850  0.2282  0.2677
 2084WAT     H1 6771   4.397   5.647   5.132  0.2345  1.7139 -0.4327
 2084WAT     H2 6772   4.340   5.691   4.998 -0.1625 -0.9271 -1.1796
 2085WAT      O 6773   2.894   4.746   5.878 -0.5486  0.4685  0.3044
 2085WAT     H1 6774   2.859   4.717   5.794 -1.2246  0.0402  0.7236
 2085WAT     H2 6775   2.979   4.703   5.885 -1.5289 -1.4473  0.9091
 2086WAT      O 6776   6.354   3.900   1.012  0.2217  0.1652  0.2571
 2086WAT     H1 6777   6.439   3.855   1.006  0.5055  0.1356  3.0801
 2086WAT     H2 6778   6.377   3.993   1.014  0.1010  0.2003 -0.0271
 2087WAT      O 6779   2.592   3.672   0.575 -0.0249  0.5361 -0.0995
 2087WAT     H1 6780   2.537   3.750   0.576 -1.0654 -0.1769  1.0836
 2087WAT     H2 6781   2.681   3.706   0.565 -0.5239  1.8207 -0.3828
 2088WAT      O 6782   6.503   1.966   1.732 -0.2058 -0.2420 -0.0212
 2088WAT     H1 6783   6.509   1.897   1.798 -0.5630 -0.2575 -0.0042
 2088WAT     H2 6784   6.549   1.930   1.656 -0.4289 -0.5139 -0.0274
 2089WAT      O 6785   5.054   4.497   4.706  0.2749  0.0726 -0.0667
 2089WAT     H1 6786   5.067   4.480   4.613  1.0830 -0.7209  0.1772
 2089WAT     H2 6787   5.020   4.414   4.741  0.7368  0.1144  0.4887
 2090WAT      O 6788   2.541   4.965   4.440 -0.1831  0.6046 -0.4757
 2090WAT     H1 6789   2.516   4.888   4.389  2.1127 -0.4799 -0.1007
 2090WAT     H2 6790   2.616   5.001   4.393  0.3783  1.0810  0.7427
 2091WAT      O 6791   4.379   3.441   4.380  0.2518 -0.1847  0.0523
 2091WAT     H1 6792   4.370   3.479   4.468 -1.7202  0.1592 -0.2457
 2091WAT     H2 6793   4.392   3.517   4.323 -0.4425 -0.2270 -0.1690
 2092WAT      O 6794   4.237   3.430   0.081  0.0147 -0.5245  0.0124
 2092WAT     H1 6795   4.250   3.464   0.170  0.8472 -0.9243  0.0505
 2092WAT     H2 6796   4.292   3.352   0.077  0.7292  0.0188 -1.1710
 2093WAT      O 6797   6.722   4.111   4.613  0.2386  0.5922 -0.2838
 2093WAT     H1 6798   6.807   4.141   4.582  0.3550 -0.5846 -1.2231
 2093WAT     H2 6799   6.720   4.018   4.589 -1.2755  0.5807 -0.2044
 2094WAT      O 6800   5.162   2.999   5.015  0.2167  0.3225  0.0842
 2094WAT     H1 6801   5.124   3.011   4.928 -0.2339 -0.5905  0.1415
 2094WAT     H2 6802   5.157   3.085   5.056  0.6002  0.8073 -0.8504
 2095WAT      O 6803   7.096   2.468   0.017 -0.3440 -0.6115 -0.1444
 2095WAT     H1 6804   7.137   2.477   0.103 -0.8540 -1.3729  0.1892
 2095WAT     H2 6805   7.006   2.499   0.030 -0.3037 -0.3275 -0.5165
 2096WAT      O 6806   6.269   3.653   0.224 -0.0471 -0.2793 -0.0916
 2096WAT     H1 6807   6.229   3.645   0.137 -0.9372 -1.6057  0.4253
 2096WAT     H2 6808   6.228   3.585   0.276  2.2333 -1.1153  0.7263
 2097WAT      O 6809   5.542   4.671   4.450  0.1419  0.4880  0.5955
 2097WAT     H1 6810   5.525   4.610   4.378  2.1310  0.1178  0.3873
 2097WAT     H2 6811   5.507   4.755   4.419 -1.6502 -0.2718  0.4378
 2098WAT      O 6812   3.529   4.488   5.634 -0.6984 -0.0653  0.3677
 2098WAT     H1 6813   3.491   4.565   5.676 -1.7165 -0.7116  0.6546
 2098WAT     H2 6814   3.623   4.497   5.651 -0.6815  1.5508 -0.3520
 2099WAT      O 6815   2.549   5.146   3.415 -0.4016  0.6064  0.0724
 2099WAT     H1 6816   2.496   5.217   3.378 -0.0859  1.4029  1.0890
 2099WAT     H2 6817   2.637   5.184   3.423 -0.6045  0.7104  2.2405
 2100WAT      O 6818   3.543   4.040   4.182 -1.0544  0.6175  0.2091
 2100WAT     H1 6819   3.503   3.969   4.133  0.9607  0.5693 -1.4727
 2100WAT     H2 6820   3.567   4.001   4.266 -0.8240 -0.4302 -0.3344
 2101WAT      O 6821   3.036   0.928   4.676 -0.6708 -0.0762  0.4919
 2101WAT     H1 6822   3.034   0.895   4.765  0.9580  0.5252  0.7843
 2101WAT     H2 6823   3.128   0.946   4.659 -1.0244  0.4357 -1.0878
 2102WAT      O 6824   5.787   4.894   0.389 -0.2326  0.1943  0.0971
 2102WAT     H1 6825   5.813   4.826   0.327 -0.7391  0.0584  0.0287
 2102WAT     H2 6826   5.706   4.929   0.353 -0.3743  0.3177  0.5274
 2103WAT      O 6827   4.386   6.123   0.168 -0.0833  0.4470 -0.6632
 2103WAT     H1 6828   4.370   6.203   0.218 -0.0246  0.8438 -1.2726
 2103WAT     H2 6829   4.334   6.056   0.212  1.5762  0.2900  1.2406
 2104WAT      O 6830   4.578   4.737   1.096 -0.1627 -0.6936 -0.2224
 2104WAT     H1 6831   4.569   4.753   1.002 -0.4258 -1.1268 -0.2740
 2104WAT     H2 6832   4.594   4.642   1.103  1.5870 -0.4219  0.0577
 2105WAT      O 6833   6.576   3.837   5.003 -0.2012 -0.2516  0.1078
 2105WAT     H1 6834   6.504   3.775   5.016 -1.9667  1.7558  0.4150
 2105WAT     H2 6835   6.533   3.917   4.972  2.1914  0.2505 -2.2857
 2106WAT      O 6836   3.884   3.728   5.549 -0.0940  0.0549  0.3668
 2106WAT     H1 6837   3.801   3.736   5.596 -0.4221  0.1959 -0.2156
 2106WAT     H2 6838   3.936   3.802   5.581 -0.6361  0.6643 -0.1092
 2107WAT      O 6839   6.431   3.157   0.217 -0.2258 -0.9358 -0.4375
 2107WAT     H1 6840   6.503   3.108   0.255  1.9766  0.5242 -2.4764
 2107WAT     H2 6841   6.442   3.246   0.249 -1.3492 -0.7434 -0.5209
 2108WAT      O 6842   4.268   3.571   5.340 -0.2385  0.2061  0.0843
 2108WAT     H1 6843   4.205   3.548   5.271 -0.0010 -2.8654  0.7299
 2108WAT     H2 6844   4.306   3.487   5.366  0.0175  1.2571  3.6438
 2109WAT      O 6845   5.465   3.747   0.395 -0.2859  0.2000 -0.3787
 2109WAT     H1 6846   5.544   3.762   0.447 -0.4701  0.1956 -0.0986
 2109WAT     H2 6847   5.407   3.699   0.454  0.0726 -1.1387 -1.0626
 2110WAT      O 6848   5.043   1.506   5.364  0.1304  0.0191 -0.4500
 2110WAT     H1 6849   5.085   1.564   5.427  0.7800 -0.9555  0.0321
 2110WAT     H2 6850   5.037   1.558   5.284  3.3221 -0.1207 -0.9137
 2111WAT      O 6851   4.377   3.831   1.015 -0.2945  0.1419  0.0023
 2111WAT     H1 6852   4.437   3.839   1.089 -0.6796  1.8169  0.1931
 2111WAT     H2 6853   4.332   3.748   1.029  1.3276 -0.7180  0.3227
 2112WAT      O 6854   2.344   3.812   4.858 -0.0915  0.3219 -0.0733
 2112WAT     H1 6855   2.334   3.765   4.941 -0.1365  1.3802  0.5244
 2112WAT     H2 6856   2.414   3.875   4.874 -0.3710  0.8047 -0.7262
 2113WAT      O 6857   3.459   0.630   5.064  0.0751  0.2810 -0.3536
 2113WAT     H1 6858   3.462   0.537   5.087 -0.9469 -0.3295 -2.3791
 2113WAT     H2 6859   3.550   0.654   5.050  0.3774 -0.3309  0.4964
 2114WAT      O 6860   4.098   3.973   5.008  0.1381 -0.3471  0.6983
 2114WAT     H1 6861   4.033   3.956   4.939  1.7516  1.4009 -1.4119
 2114WAT     H2 6862   4.156   3.896   5.005 -0.8598 -1.1514  1.4579
 2115WAT      O 6863   4.357   4.279   4.570 -0.4747  0.0950 -0.2186
 2115WAT     H1 6864   4.376   4.185   4.569 -1.4388 -0.1104 -1.1073
 2115WAT     H2 6865   4.262   4.284   4.562 -0.5049  1.1404  0.7082
 2116WAT      O 6866   4.490   4.264   5.958  0.2771 -0.0150  0.2151
 2116WAT     H1 6867   4.417   4.233   6.011  0.0716  0.5972  0.3018
 2116WAT     H2 6868   4.490   4.207   5.881 -0.3059 -0.0007  0.2029
 2117WAT      O 6869   2.916   5.023   5.836 -1.2580  0.2173  0.3028
 2117WAT     H1 6870   3.011   5.034   5.838 -1.2917  1.3152  3.7543
 2117WAT     H2 6871   2.902   4.929   5.846 -0.5546  0.0401 -0.3094
 2118WAT      O 6872   6.062   4.622   4.379 -0.0518 -0.2823  0.7910
 2118WAT     H1 6873   5.977   4.633   4.336 -0.4043  0.8898  1.7333
 2118WAT     H2 6874   6.079   4.706   4.420  2.2207 -0.0546 -0.4862
 2119WAT      O 6875   6.144   4.118   5.399 -0.5326  0.6215  1.3375
 2119WAT     H1 6876   6.104   4.115   5.312  0.7881 -0.0317  0.7305
 2119WAT     H2 6877   6.202   4.194   5.397 -0.6959  0.7577  1.7398
 2120WAT      O 6878   3.562   4.137   4.685 -0.2899 -0.2376  0.0126
 2120WAT     H1 6879   3.469   4.158   4.672 -0.2568 -0.4716 -0.6447
 2120WAT     H2 6880   3.583   4.076   4.615  0.5214  0.2873 -0.2256
 2121WAT      O 6881   4.532   4.385   4.323  0.0311 -0.8458  0.0901
 2121WAT     H1 6882   4.554   4.297   4.352  2.5796  0.0817  1.3155
 2121WAT     H2 6883   4.474   4.419   4.391 -1.0593 -1.5632 -0.4469
 2122WAT      O 6884   3.987   3.249   5.106  0.2080 -0.2841  0.5609
 2122WAT     H1 6885   3.944   3.166   5.122  0.8818 -1.2531 -2.1202
 2122WAT     H2 6886   4.010   3.247   5.013  0.0252  3.0119  0.3189
 2123WAT      O 6887   3.925   3.406   5.671 -0.3334 -0.2066 -0.0193
 2123WAT     H1 6888   4.011   3.425   5.634 -1.5799  3.0313 -1.7257
 2123WAT     H2 6889   3.940   3.395   5.765  1.8144  1.3977 -0.1115
 2124WAT      O 6890   6.194   4.246   4.936  0.1486 -0.1955  0.4835
 2124WAT     H1 6891   6.275   4.197   4.949 -0.4250 -1.5277 -0.7247
 2124WAT     H2 6892   6.216   4.313   4.871 -0.1074 -1.7393 -1.2911
 2125WAT      O 6893   4.761   5.818   5.931  0.4020  0.9061  0.1054
 2125WAT     H1 6894   4.712   5.880   5.985  0.0174  0.7576 -0.0708
 2125WAT     H2 6895   4.695   5.780   5.872  0.9827  1.8008 -1.1716
 2126WAT      O 6896   4.358   5.598   3.198  0.0025 -0.1229 -0.5098
 2126WAT     H1 6897   4.340   5.526   3.138 -2.5054  0.6169 -0.7361
 2126WAT     H2 6898   4.321   5.675   3.154  0.9886  1.0020  0.5615
 2127WAT      O 6899   4.085   5.940   0.307 -0.6141  0.5451  0.4674
 2127WAT     H1 6900   4.031   5.866   0.334  0.0322  0.4237  1.4987
 2127WAT     H2 6901   4.080   5.940   0.212  0.1946 -1.4586  0.3794
 2128WAT      O 6902   4.846   3.652   0.310 -0.9119 -0.4223 -0.3491
 2128WAT     H1 6903   4.927   3.608   0.283 -0.5870  0.2763 -0.5387
 2128WAT     H2 6904   4.860   3.673   0.402 -1.7413 -2.1837  0.2161
 2129WAT      O 6905   4.804   0.083   3.992  0.0671  0.1080  0.5914
 2129WAT     H1 6906   4.762   0.107   4.075  0.8501  1.9468  0.5107
 2129WAT     H2 6907   4.778   0.153   3.932  2.7362  1.0182  0.3845
 2130WAT      O 6908   3.718   0.306   5.740 -0.3228 -0.0641 -0.3449
 2130WAT     H1 6909   3.696   0.399   5.747  2.6429  0.7493 -0.2314
 2130WAT     H2 6910   3.657   0.271   5.675 -1.7519  1.8588 -0.1075
 2131WAT      O 6911   7.045   3.176   4.851 -0.2489 -0.8662 -0.4268
 2131WAT     H1 6912   6.971   3.237   4.846  0.1955 -0.3166 -0.3749
 2131WAT     H2 6913   7.019   3.104   4.793 -1.2429 -1.1462  0.3329
 2132WAT      O 6914   6.119   4.505   0.134 -0.0662  0.1347  0.3017
 2132WAT     H1 6915   6.152   4.429   0.087  1.8531 -0.3459  2.2375
 2132WAT     H2 6916   6.127   4.577   0.072  2.0896 -0.5166 -0.2515
 2133WAT      O 6917   3.592   0.645   5.420  0.6582  0.1383 -0.4185
 2133WAT     H1 6918   3.547   0.693   5.490 -1.0082  0.3038 -1.5431
 2133WAT     H2 6919   3.669   0.607   5.463 -1.0392 -0.9636  1.8459
 2134WAT      O 6920   6.300   2.812   4.864  0.2225 -0.4587  0.4129
 2134WAT     H1 6921   6.248   2.865   4.924  0.1893 -0.3974  0.3294
 2134WAT     H2 6922   6.286   2.852   4.778 -1.1352 -1.5680  0.0699
 2135WAT      O 6923   3.606   4.534   5.991 -0.6830  0.0234 -0.3863
 2135WAT     H1 6924   3.577   4.445   6.013  0.6199 -0.2044  0.5353
 2135WAT     H2 6925   3.702   4.527   5.988 -0.6406  0.9131 -2.4813
 2136WAT      O 6926   6.036   2.510   5.088  0.2169  0.2587  0.3466
 2136WAT     H1 6927   5.956   2.467   5.119 -0.3827  1.0795 -0.0164
 2136WAT     H2 6928   6.106   2.448   5.108 -0.7021 -1.2344 -0.8597
 2137WAT      O 6929   3.664   2.780   1.634  0.2597 -0.1180 -0.3883
 2137WAT     H1 6930   3.665   2.769   1.539  1.3701  1.7164 -0.6325
 2137WAT     H2 6931   3.750   2.749   1.662  1.2483  2.3452 -0.4404
 2138WAT      O 6932   4.652   1.032   0.506  0.1100  0.2168 -0.6452
 2138WAT     H1 6933   4.668   0.980   0.427  1.7312 -1.3796  0.6517
 2138WAT     H2 6934   4.702   1.112   0.493  2.6875 -1.2002 -0.1719
 2139WAT      O 6935   3.557   4.313   3.267  0.2450 -0.3335 -0.0355
 2139WAT     H1 6936   3.524   4.398   3.296 -0.2256 -0.4264 -0.2800
 2139WAT     H2 6937   3.634   4.297   3.322 -0.7579 -0.6253  1.3438
 2140WAT      O 6938   5.706   2.081   5.477  0.3066 -0.4187  0.7079
 2140WAT     H1 6939   5.681   1.989   5.483 -1.6267  0.0159 -0.0702
 2140WAT     H2 6940   5.791   2.079   5.433  0.2227 -1.8161  0.5412
 2141WAT      O 6941   3.915   4.675   5.589  0.3442  0.0046 -0.2134
 2141WAT     H1 6942   3.940   4.720   5.670  0.5627  0.6584 -0.6374
 2141WAT     H2 6943   3.862   4.601   5.618 -0.7999  1.0604  0.4528
 2142WAT      O 6944   3.913   0.019   5.376  0.0667  0.3315  0.5652
 2142WAT     H1 6945   3.821   0.040   5.394  0.0075 -0.1491  0.8264
 2142WAT     H2 6946   3.956   0.105   5.375 -0.5303  0.6349 -0.4212
 2143WAT      O 6947   4.516   4.482   1.067 -0.2756  0.6255 -0.3436
 2143WAT     H1 6948   4.495   4.429   1.144 -1.6126 -1.1452 -1.8288
 2143WAT     H2 6949   4.586   4.433   1.023 -0.7603  0.6529 -1.1604
 2144WAT      O 6950   3.847   4.347   5.919 -0.5922 -0.4280 -0.2375
 2144WAT     H1 6951   3.832   4.332   6.013  0.4894  0.0982  0.0432
 2144WAT     H2 6952   3.936   4.314   5.904 -0.5260  0.0516 -0.9381
 2145WAT      O 6953   2.094   6.067   5.983 -0.1926 -0.1061 -0.4636
 2145WAT     H1 6954   2.078   5.973   5.972  0.3698 -0.1157 -1.2852
 2145WAT     H2 6955   2.189   6.074   5.987 -0.2451  0.1506  2.3956
 2146WAT      O 6956   5.189   4.072   0.275 -0.4780 -0.0278 -0.2437
 2146WAT     H1 6957   5.113   4.120   0.307 -1.5859 -0.6132 -1.8464
 2146WAT     H2 6958   5.255   4.084   0.343 -1.2249  2.4035  0.1584
 2147WAT      O 6959   4.457   5.035   5.170  0.0398  0.0150 -0.2238
 2147WAT     H1 6960   4.373   5.070   5.201  0.3883  1.8196 -1.1716
 2147WAT     H2 6961   4.517   5.109   5.178  1.6908 -1.3908  0.9176
 2148WAT      O 6962   6.267   3.421   4.826  0.1900 -0.1919  0.1394
 2148WAT     H1 6963   6.215   3.350   4.789  0.6373 -1.4529  1.7602
 2148WAT     H2 6964   6.357   3.387   4.826  0.5750  0.8020 -0.0039
 2149WAT      O 6965   3.531   4.610   5.154  0.2977 -0.1510 -0.2373
 2149WAT     H1 6966   3.581   4.542   5.199  0.5083  0.0473 -0.1681
 2149WAT     H2 6967   3.440   4.584   5.165  0.3774 -0.4379 -0.2374
 2150WAT      O 6968   4.037   5.166   3.998  0.4345 -0.2100  0.3953
 2150WAT     H1 6969   3.969   5.112   3.957 -0.0327  0.2327  0.5828
 2150WAT     H2 6970   4.074   5.110   4.066 -0.0525 -0.2971  0.5912
 2151WAT      O 6971   5.173   4.302   4.079  0.6078 -0.2695  0.6535
 2151WAT     H1 6972   5.234   4.280   4.008 -0.9954 -2.6753 -0.1152
 2151WAT     H2 6973   5.122   4.376   4.044  2.4293  1.2196  0.9814
 2152WAT      O 6974   6.685   3.331   4.164  0.1467  0.1228 -0.0329
 2152WAT     H1 6975   6.604   3.283   4.183  0.6296 -1.2584 -1.2616
 2152WAT     H2 6976   6.669   3.372   4.079  0.1040  1.3515  0.5562
 2153WAT      O 6977   3.754   5.393   3.503  0.2108  0.2234  0.2260
 2153WAT     H1 6978   3.664   5.368   3.485  0.4345  0.2587 -1.0003
 2153WAT     H2 6979   3.790   5.319   3.552 -0.9945  0.9989  2.4096
 2154WAT      O 6980   2.992   4.842   4.475 -0.1189  0.2676  0.1186
 2154WAT     H1 6981   3.026   4.754   4.487 -2.4504 -0.8301 -0.6643
 2154WAT     H2 6982   2.951   4.840   4.388 -0.4336  2.0660  0.1828
 2155WAT      O 6983   4.980   5.664   0.027 -0.0573  0.6234  0.6612
 2155WAT     H1 6984   5.012   5.731   0.087  0.8581  0.5428  0.2960
 2155WAT     H2 6985   4.932   5.712  -0.040  0.1043  0.8592  0.7130
 2156WAT      O 6986   4.183   5.721   0.042 -0.5162 -0.0324 -0.3800
 2156WAT     H1 6987   4.120   5.739   0.113 -0.0729 -1.4221  0.3972
 2156WAT     H2 6988   4.267   5.713   0.087  0.1451  1.2301 -1.3451
 2157WAT      O 6989   2.787   0.281   5.246 -0.0127  0.0136  0.1678
 2157WAT     H1 6990   2.741   0.210   5.291 -1.3193  1.0725  0.6031
 2157WAT     H2 6991   2.872   0.245   5.223 -1.0200 -2.0377 -0.5844
 2158WAT      O 6992   3.473   2.943   4.206  0.1735  0.4099  0.0649
 2158WAT     H1 6993   3.492   2.892   4.127  1.2137  0.7382  0.0787
 2158WAT     H2 6994   3.453   2.877   4.272  2.2760 -0.0882  0.2865
 2159WAT      O 6995   6.809   3.714   4.953  0.0884 -0.7017 -0.2986
 2159WAT     H1 6996   6.799   3.679   4.864 -2.0697 -1.0790  0.0484
 2159WAT     H2 6997   6.729   3.765   4.968  0.5129 -0.4779  1.3614
 2160WAT      O 6998   0.049   2.739   5.169  0.1334 -0.7834  0.2748
 2160WAT     H1 6999   0.137   2.703   5.156  0.7996  0.4070  1.3921
 2160WAT     H2 7000   0.040   2.806   5.101  0.0821 -0.8788  0.1854
 2161WAT      O 7001   3.634   4.951   1.019  0.1430  0.0256 -0.1841
 2161WAT     H1 7002   3.677   4.878   0.974  1.0901 -0.6575  1.6933
 2161WAT     H2 7003   3.624   4.920   1.109 -1.0191  1.5811  0.2531
 2162WAT      O 7004   5.815   4.380   5.434 -0.1564 -0.3845  0.6479
 2162WAT     H1 7005   5.859   4.339   5.509  0.7148  1.3426  1.1362
 2162WAT     H2 7006   5.773   4.458   5.471 -1.2442 -0.4703 -0.3486
 2163WAT      O 7007   6.916   3.277   3.606  0.9493  0.3011 -0.5980
 2163WAT     H1 7008   6.944   3.186   3.615  0.3912  0.1958  0.2359
 2163WAT     H2 7009   6.843   3.286   3.667  1.8815  1.6688  0.3881
 2164WAT      O 7010   5.088   5.012   5.354  0.1602  0.4562 -0.0484
 2164WAT     H1 7011   5.036   4.935   5.333  0.5782  0.0730  0.2924
 2164WAT     H2 7012   5.026   5.073   5.392 -0.1124  0.1497  0.0049
 2165WAT      O 7013   5.692   4.944   5.700 -0.6588 -0.6934 -0.3975
 2165WAT     H1 7014   5.760   4.894   5.654 -0.6487  0.4463 -1.6894
 2165WAT     H2 7015   5.615   4.936   5.643 -0.9840 -0.1970 -0.0274
 2166WAT      O 7016   3.375   4.356   5.420 -0.4724 -0.0402  0.5792
 2166WAT     H1 7017   3.437   4.396   5.481  0.1642 -0.7653  0.4182
 2166WAT     H2 7018   3.335   4.431   5.375  0.6205  0.4326  0.3581
 2167WAT      O 7019   6.209   3.320   2.032  0.5546 -0.0412 -0.4714
 2167WAT     H1 7020   6.264   3.387   2.072 -0.2256  1.4152 -1.7344
 2167WAT     H2 7021   6.249   3.305   1.946  0.7200 -1.2209 -0.2034
 2168WAT      O 7022   4.001   4.805   5.077 -0.4516  0.5660  0.5233
 2168WAT     H1 7023   3.908   4.821   5.094 -1.4099 -0.9341 -2.4514
 2168WAT     H2 7024   4.011   4.711   5.086  0.1356  0.3872 -1.4122
 2169WAT      O 7025   3.743   4.218   5.513 -0.5817 -0.1965  0.1221
 2169WAT     H1 7026   3.700   4.133   5.514 -0.3907 -0.4739  4.5380
 2169WAT     H2 7027   3.834   4.199   5.490 -0.9818 -0.8225 -1.0195
 2170WAT      O 7028   5.024   3.954   0.110 -0.1002  0.4143  0.0160
 2170WAT     H1 7029   5.008   3.881   0.169  0.5834  0.0084 -0.2896
 2170WAT     H2 7030   5.087   4.009   0.157  0.7061 -0.0822 -0.4572
 2171WAT      O 7031   5.953   3.724   4.410  0.3850 -0.3356 -0.6379
 2171WAT     H1 7032   5.905   3.761   4.336 -0.3650 -0.0445 -0.0210
 2171WAT     H2 7033   5.891   3.728   4.483  1.4023  0.2369  0.2293
 2172WAT      O 7034   4.658   3.301   4.870  0.2794  0.3150 -0.0487
 2172WAT     H1 7035   4.727   3.365   4.849  1.2104 -0.6007  0.0975
 2172WAT     H2 7036   4.697   3.217   4.845 -0.2428 -0.3625  1.3784
 2173WAT      O 7037   6.159   4.719   2.952 -0.2344  0.0053  0.0084
 2173WAT     H1 7038   6.165   4.806   2.990 -1.2591  0.5433 -1.0023
 2173WAT     H2 7039   6.242   4.708   2.904 -0.6751  1.0292 -1.0389
 2174WAT      O 7040   4.173   4.713   0.082 -0.5462 -0.0069  0.0941
 2174WAT     H1 7041   4.205   4.714  -0.008  1.3434 -3.1792  0.5787
 2174WAT     H2 7042   4.230   4.774   0.129  0.9219 -1.0940 -0.2185
 2175WAT      O 7043   5.821   3.720   2.051 -0.7442  0.2805 -0.1564
 2175WAT     H1 7044   5.823   3.672   1.968  0.8697  0.8225 -0.4597
 2175WAT     H2 7045   5.863   3.661   2.114 -0.8409  0.3653 -0.0118
 2176WAT      O 7046   5.949   3.172   1.711 -0.2150 -0.0310 -0.2018
 2176WAT     H1 7047   5.933   3.161   1.805  4.5751 -2.7088  0.6260
 2176WAT     H2 7048   5.970   3.265   1.701  0.6087  0.0275  1.7057
 2177WAT      O 7049   4.796   4.886   4.404 -0.1246  0.7452 -0.3245
 2177WAT     H1 7050   4.798   4.816   4.468 -1.9961  2.5872  1.9527
 2177WAT     H2 7051   4.769   4.844   4.322  0.8713 -1.4394  0.3989
 2178WAT      O 7052   4.305   5.263   5.817 -0.1543  0.2808 -0.4919
 2178WAT     H1 7053   4.316   5.333   5.882 -2.4401 -1.2318  1.6783
 2178WAT     H2 7054   4.216   5.275   5.784 -0.8630 -1.9815  0.4712
 2179WAT      O 7055   5.393   2.341   3.601 -0.3061 -0.0166  0.3796
 2179WAT     H1 7056   5.472   2.389   3.628 -0.3625  0.1292  0.2858
 2179WAT     H2 7057   5.426   2.257   3.570 -0.3759 -0.8988  2.5427
 2180WAT      O 7058   4.932   4.028   4.513  0.0038 -0.0275 -0.2875
 2180WAT     H1 7059   4.849   3.990   4.485  0.9775 -0.4307 -2.8552
 2180WAT     H2 7060   4.919   4.123   4.503 -0.3035 -0.0554 -0.1735
 2181WAT      O 7061   5.918   2.664   5.935 -0.1026  0.0627  0.3252
 2181WAT     H1 7062   5.931   2.660   6.029 -0.7853  0.7794  0.4631
 2181WAT     H2 7063   5.835   2.711   5.924  0.6677  1.2702 -0.6545
 2182WAT      O 7064   2.586   0.610   4.474  0.2749 -0.7743 -0.3336
 2182WAT     H1 7065   2.662   0.586   4.420  0.0249  1.5876 -1.8595
 2182WAT     H2 7066   2.624   0.661   4.546  0.1580  1.1492 -1.5581
 2183WAT      O 7067   3.117   4.875   4.750 -0.0774  0.3750  0.2735
 2183WAT     H1 7068   3.050   4.875   4.681  0.7713 -0.9308 -0.6057
 2183WAT     H2 7069   3.099   4.954   4.801 -1.7723  0.4802 -0.4266
 2184WAT      O 7070   4.663   5.480   5.644  0.4852  0.2318 -0.2493
 2184WAT     H1 7071   4.656   5.567   5.684  4.6727 -0.0402  1.6019
 2184WAT     H2 7072   4.627   5.421   5.710  1.6139  0.2858  0.4412
 2185WAT      O 7073   5.680   4.628   5.524  0.3736  0.3382  0.4974
 2185WAT     H1 7074   5.634   4.691   5.580  0.1633  0.3307  0.3341
 2185WAT     H2 7075   5.645   4.644   5.436  0.2434 -0.0736  0.4714
 2186WAT      O 7076   3.067   4.377   5.149  0.7787  0.6529 -0.0978
 2186WAT     H1 7077   3.010   4.335   5.085 -1.1598 -1.6923  2.9291
 2186WAT     H2 7078   3.153   4.338   5.132  0.5374  0.7918 -1.8262
 2187WAT      O 7079   4.562   5.751   5.714  0.0499 -0.1102 -0.3534
 2187WAT     H1 7080   4.473   5.741   5.749 -0.3848 -0.0518 -1.4130
 2187WAT     H2 7081   4.550   5.797   5.631  0.9046 -1.4503 -1.2723
 2188WAT      O 7082   4.280   5.558   4.774  0.1757 -0.3948 -0.0948
 2188WAT     H1 7083   4.331   5.626   4.729  0.3135  0.8027  1.7337
 2188WAT     H2 7084   4.334   5.479   4.767  1.2817  0.3321 -0.0426
 2189WAT      O 7085   6.808   3.809   5.250  0.1891  0.4177  0.2595
 2189WAT     H1 7086   6.801   3.812   5.154  0.4373  2.3029  0.2654
 2189WAT     H2 7087   6.753   3.735   5.275 -1.1730  0.8542 -1.2379
 2190WAT      O 7088   3.803   4.551   4.567  0.0219 -0.2332  0.1560
 2190WAT     H1 7089   3.734   4.573   4.505 -1.0904 -0.1841  1.3823
 2190WAT     H2 7090   3.830   4.635   4.605 -1.4184 -0.5134  1.9053
 2191WAT      O 7091   4.383   4.841   2.095 -0.2200  0.0116 -0.0270
 2191WAT     H1 7092   4.419   4.915   2.144 -1.2183  0.2090  0.4404
 2191WAT     H2 7093   4.409   4.857   2.005 -0.1411  0.7678  0.1220
 2192WAT      O 7094   3.989   5.398   4.190  0.2748 -0.1410  0.5531
 2192WAT     H1 7095   3.982   5.360   4.102 -2.4395  1.8546 -0.2279
 2192WAT     H2 7096   3.909   5.372   4.234  1.0163 -0.0474  2.0143
 2193WAT      O 7097   3.310   4.681   5.743 -0.9601  0.0702  0.0245
 2193WAT     H1 7098   3.280   4.712   5.658 -2.0719 -0.5879  0.1464
 2193WAT     H2 7099   3.233   4.637   5.780 -0.1118 -0.7952  0.8094
 2194WAT      O 7100   3.088   4.698   2.612  0.2105  0.1135  0.6993
 2194WAT     H1 7101   3.008   4.652   2.638 -0.4992 -0.0183 -1.5386
 2194WAT     H2 7102   3.144   4.630   2.576 -0.0186  0.6608 -0.7538
 2195WAT      O 7103   6.351   4.579   2.721  0.0588  0.5392 -0.0027
 2195WAT     H1 7104   6.446   4.586   2.714  0.0304 -0.7495 -3.1354
 2195WAT     H2 7105   6.318   4.664   2.691  0.1897  0.3997 -0.5365
 2196WAT      O 7106   4.350   5.360   3.048 -0.1458 -0.6318 -0.5017
 2196WAT     H1 7107   4.279   5.319   2.998  0.2211 -0.5802 -1.0736
 2196WAT     H2 7108   4.366   5.299   3.120  0.2197 -1.3847 -1.2037
 2197WAT      O 7109   4.162   5.842   4.589 -0.0493  0.5384  0.5699
 2197WAT     H1 7110   4.100   5.825   4.519 -0.1651 -1.3095  1.0823
 2197WAT     H2 7111   4.119   5.908   4.644  0.2998  2.4896 -1.3459
 2198WAT      O 7112   5.110   4.000   4.247 -0.1811 -0.0883 -0.0530
 2198WAT     H1 7113   5.074   4.067   4.306  1.1225  0.4956  0.1258
 2198WAT     H2 7114   5.046   3.929   4.249 -2.6788  1.9262 -1.8198
 2199WAT      O 7115   4.486   3.838   2.331 -0.6374 -0.3936 -0.4659
 2199WAT     H1 7116   4.453   3.792   2.254  1.4958 -1.9233 -0.5388
 2199WAT     H2 7117   4.524   3.770   2.386  0.1720  0.9682  0.7393
 2200WAT      O 7118   0.022   2.155   4.783 -0.2617 -0.0256  0.4041
 2200WAT     H1 7119   0.105   2.108   4.779 -1.6680 -2.5899 -1.0042
 2200WAT     H2 7120   0.006   2.182   4.693 -0.4783  1.4224  0.8562
 2201WAT      O 7121   0.213   2.937   4.709  0.3186  0.3221  0.4624
 2201WAT     H1 7122   0.119   2.939   4.691  0.3538 -0.4985  0.1440
 2201WAT     H2 7123   0.242   3.026   4.693 -0.3778  0.5456  0.4030
 2202WAT      O 7124   2.556   2.403   2.909 -0.4402  0.2910  0.5627
 2202WAT     H1 7125   2.627   2.346   2.937 -0.2400  0.1433 -0.2201
 2202WAT     H2 7126   2.485   2.385   2.971  0.0368  0.0940  1.0606
 2203WAT      O 7127   5.554   3.364   3.260 -0.3714  0.2178 -0.0816
 2203WAT     H1 7128   5.592   3.396   3.342  0.1001  0.4140 -0.3738
 2203WAT     H2 7129   5.611   3.399   3.192 -1.1958  0.6887 -0.5461
 2204WAT      O 7130   4.457   4.827   4.540  0.1810  0.0671 -0.2426
 2204WAT     H1 7131   4.469   4.819   4.445  0.1696  1.9973 -0.4443
 2204WAT     H2 7132   4.437   4.738   4.569  0.4717 -0.6167 -2.0019
 2205WAT      O 7133   5.753   4.125   4.001  0.2452  0.1491 -0.5392
 2205WAT     H1 7134   5.733   4.063   3.931 -1.4548  1.0311 -0.8811
 2205WAT     H2 7135   5.692   4.103   4.071 -1.1888  2.0765 -1.0913
 2206WAT      O 7136   3.157   4.039   3.604  0.0419 -0.0017 -0.0405
 2206WAT     H1 7137   3.173   4.012   3.694  0.5786 -0.2566 -0.2071
 2206WAT     H2 7138   3.217   4.112   3.590  1.0461 -0.9335 -0.6586
 2207WAT      O 7139   6.299   4.916   3.672 -0.0111  0.0135 -0.2936
 2207WAT     H1 7140   6.263   4.863   3.600 -2.1605  0.7607  0.1792
 2207WAT     H2 7141   6.286   4.862   3.750  0.4522  0.0473 -0.1933
 2208WAT      O 7142   4.721   5.147   2.440  0.5849 -0.0836 -0.0617
 2208WAT     H1 7143   4.662   5.222   2.450 -1.7421 -1.7971 -0.1717
 2208WAT     H2 7144   4.799   5.171   2.491 -1.1716  1.3203  2.1708
 2209WAT      O 7145   5.316   3.943   4.060  0.3043 -0.4711 -0.5291
 2209WAT     H1 7146   5.306   3.927   3.966 -0.9327 -0.2095 -0.4559
 2209WAT     H2 7147   5.233   3.982   4.087  1.4568  1.6675  0.2238
 2210WAT      O 7148   4.262   5.981   5.419 -0.1403 -0.0409 -0.2893
 2210WAT     H1 7149   4.237   5.985   5.327 -0.1364 -0.1614 -0.2964
 2210WAT     H2 7150   4.182   5.952   5.464  0.0428 -0.6279 -0.3372
 2211WAT      O 7151   6.268   4.242   3.360 -0.3533  0.2625 -0.4956
 2211WAT     H1 7152   6.341   4.260   3.300  0.1154  1.7742  0.4848
 2211WAT     H2 7153   6.311   4.217   3.442 -0.9850 -0.6780 -0.4327
 2212WAT      O 7154   5.958   2.017   3.799 -0.3998  0.2252  0.4310
 2212WAT     H1 7155   5.874   2.051   3.768 -0.1988  0.4160  0.0888
 2212WAT     H2 7156   5.990   2.083   3.859  0.7913  1.5023 -1.5144
 2213WAT      O 7157   2.106   4.772   2.472  0.4925 -0.4325 -0.2812
 2213WAT     H1 7158   2.055   4.694   2.496 -2.7844  2.0292  1.6370
 2213WAT     H2 7159   2.167   4.784   2.544  0.7144 -0.9781 -0.3746
 2214WAT      O 7160   5.864   2.638   3.460 -0.2942 -0.6780 -0.5169
 2214WAT     H1 7161   5.805   2.689   3.516  0.5171  0.4303 -0.6270
 2214WAT     H2 7162   5.941   2.695   3.449  2.4619 -3.3863  2.5221
 2215WAT      O 7163   4.094   2.209   4.198 -0.1446 -0.2347  0.2490
 2215WAT     H1 7164   4.141   2.162   4.267 -1.1992  1.5106  2.2780
 2215WAT     H2 7165   4.107   2.302   4.219 -0.7577  0.3635 -1.7661
 2216WAT      O 7166   6.822   2.952   2.086 -0.1436  0.2593  0.5097
 2216WAT     H1 7167   6.866   2.977   2.168  0.8857 -0.4220  0.1792
 2216WAT     H2 7168   6.769   2.876   2.109  0.0044  0.1794  0.5872
 2217WAT      O 7169   6.519   3.318   4.922 -0.1010 -0.2266  0.1192
 2217WAT     H1 7170   6.608   3.347   4.901 -0.2814  1.2622  1.2984
 2217WAT     H2 7171   6.520   3.303   5.016 -0.4705 -2.6428 -0.2002
 2218WAT      O 7172   4.344   5.486   3.571  0.3599  0.2719 -0.8982
 2218WAT     H1 7173   4.257   5.521   3.552  0.2623 -0.0389 -1.0425
 2218WAT     H2 7174   4.332   5.438   3.653  0.1625 -0.5786 -1.4094
 2219WAT      O 7175   5.016   4.292   0.540  0.7142 -0.1801 -0.0991
 2219WAT     H1 7176   5.108   4.264   0.535  1.1505  0.8618  1.5039
 2219WAT     H2 7177   4.980   4.271   0.453  1.5834 -3.5409  0.2163
 2220WAT      O 7178   3.662   4.558   3.606 -0.2055  0.0766  0.0852
 2220WAT     H1 7179   3.593   4.525   3.549 -1.2706  0.5643  1.0730
 2220WAT     H2 7180   3.726   4.487   3.609 -0.9873 -0.6545 -0.2838
 2221WAT      O 7181   4.627   0.033   2.941  0.2688  0.0502 -0.0823
 2221WAT     H1 7182   4.570  -0.004   2.873 -1.3081 -0.9526  1.6808
 2221WAT     H2 7183   4.653  -0.042   2.994  0.4506  0.9424  1.1267
 2222WAT      O 7184   3.988   6.051   1.021 -0.3132 -0.1578  0.3262
 2222WAT     H1 7185   3.984   6.053   1.116 -1.5080  2.8351  0.3167
 2222WAT     H2 7186   4.055   5.986   1.001  0.5027 -0.3181  3.2106
 2223WAT      O 7187   5.095   3.693   1.932 -0.2379 -0.3967  0.0443
 2223WAT     H1 7188   5.095   3.786   1.953 -1.4487 -0.3416 -0.1012
 2223WAT     H2 7189   5.025   3.656   1.986  1.8608 -1.7142  1.9929
 2224WAT      O 7190   4.655   4.312   3.808  0.3533 -0.0159 -0.3698
 2224WAT     H1 7191   4.655   4.365   3.888  1.3355  1.6252 -1.3779
 2224WAT     H2 7192   4.715   4.240   3.827 -0.2782 -0.2706  0.7315
 2225WAT      O 7193   5.087   3.666   2.777  1.0234 -0.4674 -0.3842
 2225WAT     H1 7194   5.124   3.754   2.779  0.1269 -0.0756 -0.3190
 2225WAT     H2 7195   4.992   3.680   2.780  0.8815 -1.4663  1.0326
 2226WAT      O 7196   3.276   5.516   4.769  0.1865 -0.1742 -0.5697
 2226WAT     H1 7197   3.363   5.502   4.807  0.0909  0.9584  0.1311
 2226WAT     H2 7198   3.293   5.530   4.676  1.0183  1.9871 -0.1533
 2227WAT      O 7199   5.262   4.650   4.150 -0.2245 -0.5801 -0.3310
 2227WAT     H1 7200   5.200   4.596   4.199  0.8990 -2.4307 -0.8066
 2227WAT     H2 7201   5.267   4.607   4.064  1.3890 -0.2711 -0.4209
 2228WAT      O 7202   3.906   4.140   4.415  0.0111  0.2675 -0.2688
 2228WAT     H1 7203   3.923   4.197   4.340 -0.2227 -0.8494 -1.1956
 2228WAT     H2 7204   3.860   4.196   4.478 -0.8369  0.9250 -1.4425
 2229WAT      O 7205   2.626   3.496   3.128  0.0281 -0.1250  0.5378
 2229WAT     H1 7206   2.631   3.589   3.104  0.8470 -0.3577 -0.2889
 2229WAT     H2 7207   2.570   3.494   3.206  2.0075  1.3736  2.1260
 2230WAT      O 7208   5.931   3.392   5.211  0.1480  0.2166 -0.0839
 2230WAT     H1 7209   5.869   3.462   5.232  1.2487  1.7431 -1.5844
 2230WAT     H2 7210   5.878   3.312   5.211 -1.4578  1.2279  0.2965
 2231WAT      O 7211   5.274   5.221   4.913  0.2873  0.3276  0.0310
 2231WAT     H1 7212   5.341   5.180   4.858 -1.2523 -0.9815 -0.9651
 2231WAT     H2 7213   5.288   5.183   5.000 -0.2832 -1.3989 -0.5842
 2232WAT      O 7214   6.027   4.333   3.494  0.0504 -0.4780 -0.0529
 2232WAT     H1 7215   6.011   4.275   3.569 -0.3178  0.0026  0.2415
 2232WAT     H2 7216   6.103   4.295   3.451  0.1618 -0.8572  0.4694
 2233WAT      O 7217   4.667   5.457   3.177  0.2525  0.3824  0.6342
 2233WAT     H1 7218   4.575   5.447   3.154  0.7119 -0.2533 -0.9976
 2233WAT     H2 7219   4.692   5.373   3.214  0.9001 -0.4993 -1.6519
 2234WAT      O 7220   5.352   3.960   3.517 -0.2928 -0.3413 -0.3364
 2234WAT     H1 7221   5.420   3.918   3.465  0.3859  0.7969 -0.3906
 2234WAT     H2 7222   5.278   3.969   3.457  0.0904 -0.0801 -0.7790
 2235WAT      O 7223   5.968   5.412   2.274  0.1024  0.1022 -0.2951
 2235WAT     H1 7224   6.032   5.463   2.223  0.8415 -2.9733 -2.7668
 2235WAT     H2 7225   6.009   5.327   2.285 -1.5503 -0.4240  2.6287
 2236WAT      O 7226   6.111   4.433   3.832 -0.0245 -0.0758 -0.0463
 2236WAT     H1 7227   6.044   4.492   3.797 -0.0859 -0.4001 -0.4867
 2236WAT     H2 7228   6.187   4.446   3.776  0.7062  1.1648  1.1720
 2237WAT      O 7229   4.257   3.859   3.824 -0.2849 -0.2645 -0.3206
 2237WAT     H1 7230   4.252   3.844   3.919  1.8637  0.5506 -0.0162
 2237WAT     H2 7231   4.250   3.954   3.814  1.6938 -0.1107 -0.7183
 2238WAT      O 7232   5.090   3.268   4.636  0.5617 -0.7574  0.7525
 2238WAT     H1 7233   5.067   3.362   4.637  1.2258 -0.5907  0.5193
 2238WAT     H2 7234   5.018   3.227   4.588 -0.1702 -0.4902  1.5748
 2239WAT      O 7235   3.032   5.792   1.064 -0.1436 -0.6412 -0.1494
 2239WAT     H1 7236   3.083   5.840   0.998 -2.1577  0.6268 -0.8510
 2239WAT     H2 7237   3.001   5.714   1.017 -0.7325 -0.2551 -0.4071
 2240WAT      O 7238   5.804   3.226   5.910 -0.0278  0.7867  0.4748
 2240WAT     H1 7239   5.709   3.241   5.907 -0.5171 -1.8162 -0.6468
 2240WAT     H2 7240   5.814   3.135   5.881  2.9290  1.3619 -0.6502
 2241WAT      O 7241   5.833   3.348   4.804 -0.7040 -0.3012 -0.1658
 2241WAT     H1 7242   5.873   3.278   4.856 -0.2446  0.7814  0.9888
 2241WAT     H2 7243   5.783   3.399   4.868 -1.4163  0.1714 -1.0697
 2242WAT      O 7244   4.322   4.374   5.210 -0.3765  0.3546  0.0766
 2242WAT     H1 7245   4.353   4.294   5.168 -0.5881  0.3155 -0.0108
 2242WAT     H2 7246   4.306   4.349   5.301 -0.2620  0.3450  0.0931
 2243WAT      O 7247   5.514   3.670   3.325  0.1617 -0.1748 -0.1858
 2243WAT     H1 7248   5.427   3.636   3.348  0.8160 -1.1910  0.8636
 2243WAT     H2 7249   5.561   3.674   3.408  1.0706  0.5594 -0.7202
 2244WAT      O 7250   2.721   4.309   3.720 -0.0891  0.2876  0.0641
 2244WAT     H1 7251   2.797   4.273   3.675  0.4012  0.1292  0.9865
 2244WAT     H2 7252   2.706   4.395   3.679  0.0253 -0.0681 -0.7244
 2245WAT      O 7253   1.038   2.587   3.677 -0.1478 -0.0316 -0.1655
 2245WAT     H1 7254   0.973   2.593   3.747  1.8244 -1.0571  1.8723
 2245WAT     H2 7255   1.074   2.675   3.670  0.8034 -0.2663  1.3515
 2246WAT      O 7256   2.699   5.514   3.173 -0.4950 -0.7192  0.2616
 2246WAT     H1 7257   2.791   5.542   3.176 -0.4125 -0.9450 -0.1006
 2246WAT     H2 7258   2.666   5.550   3.090 -0.7321 -0.6455  0.3870
 2247WAT      O 7259   3.370   4.283   4.492  0.2408  0.2576  0.2576
 2247WAT     H1 7260   3.342   4.354   4.549  0.3366  0.4193  0.1038
 2247WAT     H2 7261   3.296   4.268   4.433  0.0742 -0.0285  0.5386
 2248WAT      O 7262   5.836   3.322   3.566 -0.1404  0.2967 -0.4482
 2248WAT     H1 7263   5.741   3.310   3.566 -0.1248 -0.0060  0.9436
 2248WAT     H2 7264   5.853   3.372   3.646  0.9396 -0.1733 -0.3767
 2249WAT      O 7265   4.667   5.600   4.401  0.1515 -0.4264  0.6658
 2249WAT     H1 7266   4.716   5.601   4.318  1.6216 -2.1806  1.4560
 2249WAT     H2 7267   4.580   5.569   4.376  0.9352 -2.1208 -0.0844
 2250WAT      O 7268   5.390   2.734   2.754 -0.1013  0.1557 -0.0601
 2250WAT     H1 7269   5.363   2.652   2.715 -1.1658 -0.1556  1.2490
 2250WAT     H2 7270   5.370   2.724   2.847  0.7815  1.4807  0.3039
 2251WAT      O 7271   4.364   3.719   3.477 -0.1834  0.4112  0.0329
 2251WAT     H1 7272   4.279   3.735   3.518  0.1833  0.7535  0.6708
 2251WAT     H2 7273   4.345   3.657   3.406 -1.0434  0.8906 -0.1675
 2252WAT      O 7274   5.404   3.254   5.433  0.3165 -0.4568  0.3290
 2252WAT     H1 7275   5.455   3.180   5.399 -0.9708 -1.1159 -0.2491
 2252WAT     H2 7276   5.454   3.285   5.507  0.7932 -2.0780  0.7379
 2253WAT      O 7277   3.780   5.680   3.959 -0.0367 -0.1035 -0.4602
 2253WAT     H1 7278   3.871   5.709   3.971 -0.1098 -0.3352  0.7129
 2253WAT     H2 7279   3.785   5.585   3.965 -0.3478 -0.1200 -0.4668
 2254WAT      O 7280   5.591   3.448   5.005  0.0783 -0.1689 -0.2232
 2254WAT     H1 7281   5.605   3.541   5.022  0.3257  0.1225 -1.8856
 2254WAT     H2 7282   5.531   3.420   5.075  1.0284  0.9035  1.0720
 2255WAT      O 7283   3.451   2.297   3.470 -0.0442  0.1052 -0.2552
 2255WAT     H1 7284   3.523   2.245   3.435  0.5953  1.7329 -1.5077
 2255WAT     H2 7285   3.482   2.388   3.464 -2.2153  0.8786 -0.9378
 2256WAT      O 7286   6.769   3.940   3.930 -0.0920 -0.2535  0.0487
 2256WAT     H1 7287   6.843   3.999   3.917 -0.5516  0.9081  2.1912
 2256WAT     H2 7288   6.711   3.958   3.856  2.3734 -2.3710 -2.6174
 2257WAT      O 7289   4.926   0.130   2.054 -0.5823  0.4004  0.2095
 2257WAT     H1 7290   4.967   0.113   1.970 -1.3258  0.5467 -0.1896
 2257WAT     H2 7291   4.980   0.083   2.118  0.3303  0.7726 -0.2693
 2258WAT      O 7292   5.333   3.413   4.763 -0.1253 -0.1209 -0.0174
 2258WAT     H1 7293   5.256   3.459   4.796  0.5798 -0.5915  2.4922
 2258WAT     H2 7294   5.358   3.461   4.684 -2.2530  0.7685 -0.2062
 2259WAT      O 7295   5.332   5.053   4.150  0.1293 -0.7671 -0.6876
 2259WAT     H1 7296   5.350   4.980   4.209  0.6144  0.5576  0.8836
 2259WAT     H2 7297   5.300   5.123   4.208  0.3935  0.5044 -2.0271
 2260WAT      O 7298   5.596   3.755   4.058  0.5843  0.1401 -0.2613
 2260WAT     H1 7299   5.529   3.763   4.126  0.4464  2.0357 -0.5481
 2260WAT     H2 7300   5.678   3.774   4.103  0.3904  2.4403 -0.7264
 2261WAT      O 7301   5.350   5.388   2.103 -0.3358  0.3466 -0.1779
 2261WAT     H1 7302   5.410   5.324   2.066 -0.8626  0.3642 -1.0794
 2261WAT     H2 7303   5.405   5.443   2.159  0.4267  0.1768 -0.7557
 2262WAT      O 7304   5.092   1.766   1.430 -0.3350  0.0064  0.2545
 2262WAT     H1 7305   5.110   1.758   1.336 -1.4159  0.6045 -0.0172
 2262WAT     H2 7306   5.164   1.718   1.472  0.2978 -0.0620 -0.8616
 2263WAT      O 7307   3.181   0.574   4.504 -0.0892  0.0339  0.0582
 2263WAT     H1 7308   3.101   0.538   4.465  0.4091 -0.3318 -0.6517
 2263WAT     H2 7309   3.235   0.598   4.429  1.0409 -0.9851  0.5067
 2264WAT      O 7310   4.451   6.016   5.815 -0.3587 -0.0788 -0.2635
 2264WAT     H1 7311   4.489   6.033   5.901  1.7103 -0.3470 -1.0679
 2264WAT     H2 7312   4.395   5.940   5.828  2.5122 -2.2770  0.2770
 2265WAT      O 7313   7.143   3.975   4.741 -0.4658 -0.1061  0.4890
 2265WAT     H1 7314   7.077   4.012   4.683  1.0944  1.1929 -0.5516
 2265WAT     H2 7315   7.140   4.030   4.819 -0.9747 -0.4043  0.6859
 2266WAT      O 7316   5.163   4.318   1.855 -0.5112 -0.1129 -0.7402
 2266WAT     H1 7317   5.095   4.310   1.922 -0.8603 -1.3943 -1.2127
 2266WAT     H2 7318   5.159   4.235   1.807 -0.5936  0.9428 -2.6517
 2267WAT      O 7319   6.619   3.351   5.175 -0.1433  1.0394  0.3329
 2267WAT     H1 7320   6.707   3.386   5.161 -0.4059  1.2716 -0.8115
 2267WAT     H2 7321   6.631   3.278   5.236  0.7213  1.6024  0.8531
 2268WAT      O 7322   6.083   3.506   5.014 -0.9127  0.2207  0.2527
 2268WAT     H1 7323   6.143   3.454   4.959  0.0259 -0.0309  1.4835
 2268WAT     H2 7324   6.033   3.440   5.063 -3.1520  0.3718 -1.6463
 2269WAT      O 7325   3.758   4.452   2.957  0.5618 -0.4525  0.2811
 2269WAT     H1 7326   3.826   4.476   3.020 -1.2696 -0.6735  2.5230
 2269WAT     H2 7327   3.729   4.535   2.920  0.7511 -0.1601  0.7767
 2270WAT      O 7328   2.906   4.022   1.817  0.2353  0.0676 -0.1870
 2270WAT     H1 7329   2.840   3.958   1.788  1.1006 -1.2768  0.6809
 2270WAT     H2 7330   2.955   3.976   1.885 -0.0466  2.1741  1.5610
 2271WAT      O 7331   3.765   3.933   1.839 -0.3954  0.2751  0.0091
 2271WAT     H1 7332   3.751   3.839   1.845 -0.3369  0.3041  0.7308
 2271WAT     H2 7333   3.853   3.942   1.802 -0.7496  0.0604 -0.9022
 2272WAT      O 7334   6.265   5.381   3.861  0.0555  0.0684  0.3932
 2272WAT     H1 7335   6.261   5.369   3.956 -0.3430 -0.8411  0.2690
 2272WAT     H2 7336   6.175   5.372   3.832  0.0963  0.9230 -0.0169
 2273WAT      O 7337   6.072   4.897   4.455 -0.3969  0.1562  0.2404
 2273WAT     H1 7338   6.166   4.914   4.445 -0.2725 -0.0375  1.0251
 2273WAT     H2 7339   6.060   4.881   4.548 -1.6585  2.7378  0.5920
 2274WAT      O 7340   4.945   5.349   3.588  0.3456  0.0758 -0.0544
 2274WAT     H1 7341   4.939   5.429   3.536 -1.7733 -0.2027 -0.3152
 2274WAT     H2 7342   5.037   5.345   3.614  0.8531  1.7383 -1.3672
 2275WAT      O 7343   0.740   4.643   3.309  0.5549  0.4772  0.5521
 2275WAT     H1 7344   0.742   4.569   3.370 -1.3202 -0.4499 -0.4222
 2275WAT     H2 7345   0.684   4.708   3.351 -1.3080 -0.4376 -0.3651
 2276WAT      O 7346   3.725   4.629   3.289 -0.4393  0.2402 -0.3112
 2276WAT     H1 7347   3.739   4.615   3.382  0.7179  0.3149 -0.4560
 2276WAT     H2 7348   3.727   4.724   3.278  0.9827  0.1985 -0.6081
 2277WAT      O 7349   3.776   4.295   4.587  0.0197 -0.1196  0.6460
 2277WAT     H1 7350   3.787   4.390   4.579  0.9023 -0.1903  0.8905
 2277WAT     H2 7351   3.684   4.283   4.609 -0.5796  0.5504 -1.3572
 2278WAT      O 7352   6.648   3.790   3.271  0.0073 -0.8943 -0.0183
 2278WAT     H1 7353   6.640   3.696   3.254 -0.1434 -0.6862 -1.2342
 2278WAT     H2 7354   6.683   3.825   3.189  0.3600  0.0694  0.5400
 2279WAT      O 7355   3.297   4.521   4.056 -0.1291  0.3442  0.0528
 2279WAT     H1 7356   3.354   4.444   4.048  0.7098  0.7212  1.9238
 2279WAT     H2 7357   3.219   4.489   4.102 -0.4433  0.3201 -0.4816
 2280WAT      O 7358   6.802   3.625   3.665  0.3281  0.5731  0.3137
 2280WAT     H1 7359   6.769   3.577   3.589  2.4811  0.2473 -0.4624
 2280WAT     H2 7360   6.729   3.623   3.727 -0.4632 -1.7133 -0.5751
 2281WAT      O 7361   3.332   4.483   2.803  0.2072 -0.2233 -0.2220
 2281WAT     H1 7362   3.252   4.453   2.762 -0.4493  1.2867 -0.1095
 2281WAT     H2 7363   3.368   4.548   2.743  0.1205  0.7852  0.7801
 2282WAT      O 7364   4.590   4.959   4.897 -0.0622  0.2218  0.4029
 2282WAT     H1 7365   4.553   4.997   4.817  0.6507 -2.9074 -1.5937
 2282WAT     H2 7366   4.529   4.985   4.966 -3.0552 -0.3057 -1.8426
 2283WAT      O 7367   6.144   2.465   3.882 -0.5385  0.5360 -0.6586
 2283WAT     H1 7368   6.163   2.464   3.976  0.4094 -0.9839 -0.8494
 2283WAT     H2 7369   6.088   2.389   3.868 -0.6609  0.7446 -1.3418
 2284WAT      O 7370   5.650   1.148   2.700  0.6328 -0.3764 -0.0799
 2284WAT     H1 7371   5.572   1.111   2.742  1.8592 -2.0345  0.8614
 2284WAT     H2 7372   5.634   1.136   2.606 -0.6003  0.1141  0.0389
 2285WAT      O 7373   4.348   4.379   5.715 -0.1939 -0.4541  0.6180
 2285WAT     H1 7374   4.309   4.364   5.801 -1.4183 -2.4856 -0.2351
 2285WAT     H2 7375   4.420   4.315   5.710  1.0108  0.8404  0.7729
 2286WAT      O 7376   3.091   4.960   4.135 -0.1514  0.1677  0.1456
 2286WAT     H1 7377   3.159   4.896   4.114 -0.7940 -0.4461 -0.1137
 2286WAT     H2 7378   3.023   4.909   4.181 -0.4459  0.7592  0.3750
 2287WAT      O 7379   5.747   2.104   4.047 -0.0032  0.1517 -0.4169
 2287WAT     H1 7380   5.831   2.135   4.013 -0.0315  0.9537  0.2304
 2287WAT     H2 7381   5.684   2.170   4.018 -0.1986  0.2642  0.2565
 2288WAT      O 7382   5.720   3.951   3.023 -0.4056 -0.6445 -0.2445
 2288WAT     H1 7383   5.747   3.878   3.078 -1.3388  0.6762  2.1244
 2288WAT     H2 7384   5.626   3.960   3.039 -0.6605 -0.0408 -1.8902
 2289WAT      O 7385   5.455   3.218   2.492  0.3580 -0.1882 -0.3320
 2289WAT     H1 7386   5.550   3.208   2.500  0.3835 -0.5441 -0.9673
 2289WAT     H2 7387   5.420   3.182   2.574  0.8499  1.7074  0.7501
 2290WAT      O 7388   6.580   4.045   3.419  0.0462  0.3478 -0.4938
 2290WAT     H1 7389   6.556   4.053   3.327 -0.4066 -0.8135 -0.4866
 2290WAT     H2 7390   6.653   3.983   3.420 -3.1887 -3.8876  0.2951
 2291WAT      O 7391   5.783   4.074   2.780 -0.3137 -0.0994  0.2854
 2291WAT     H1 7392   5.760   4.018   2.854 -0.0182 -1.0915 -0.3401
 2291WAT     H2 7393   5.867   4.112   2.805 -0.6139  0.2328  0.8076
 2292WAT      O 7394   2.441   4.311   3.692 -0.2625 -0.3622  0.4757
 2292WAT     H1 7395   2.419   4.384   3.634  0.9872 -1.0366 -0.9098
 2292WAT     H2 7396   2.535   4.317   3.704 -0.1914 -1.5283  0.6356
 2293WAT      O 7397   4.148   4.945   5.835 -0.3270  0.0654  1.0681
 2293WAT     H1 7398   4.166   4.856   5.806  1.8759  1.2075 -1.5273
 2293WAT     H2 7399   4.060   4.964   5.802  0.2533 -0.3058 -0.8114
 2294WAT      O 7400   4.457   0.393   2.484  0.7531  0.1347  0.3571
 2294WAT     H1 7401   4.440   0.483   2.513  0.1759  0.2502 -0.3248
 2294WAT     H2 7402   4.370   0.356   2.469  0.9815 -0.5836  0.7554
 2295WAT      O 7403   6.839   4.486   4.070  0.1865 -0.5464 -0.1317
 2295WAT     H1 7404   6.764   4.539   4.096  0.6435 -0.2986  0.7333
 2295WAT     H2 7405   6.816   4.398   4.099  0.9258 -0.1809  1.7274
 2296WAT      O 7406   5.660   4.399   0.169 -0.4779 -0.3100 -0.1304
 2296WAT     H1 7407   5.625   4.466   0.227  1.4232  1.5721 -1.0097
 2296WAT     H2 7408   5.739   4.368   0.213 -0.8422 -1.3494 -0.1697
 2297WAT      O 7409   4.259   0.384   3.149  0.3425  0.0136 -0.1278
 2297WAT     H1 7410   4.287   0.446   3.216  0.2643 -0.0560 -0.0296
 2297WAT     H2 7411   4.340   0.358   3.105  0.3977  0.0360 -0.0396
 2298WAT      O 7412   4.510   4.853   3.346  0.0803 -0.2573  0.1184
 2298WAT     H1 7413   4.455   4.931   3.339 -0.1717 -0.5316 -1.2314
 2298WAT     H2 7414   4.594   4.886   3.379 -0.4932  0.3412  1.0378
 2299WAT      O 7415   4.817   3.789   2.783 -0.3415 -0.4916  0.2641
 2299WAT     H1 7416   4.776   3.851   2.722 -0.6976  0.1262  1.1091
 2299WAT     H2 7417   4.751   3.721   2.797 -0.1944 -0.7255 -0.1669
 2300WAT      O 7418   4.420   0.920   3.820 -0.7544 -0.0132 -0.7910
 2300WAT     H1 7419   4.339   0.874   3.843 -0.3876 -0.4156 -0.2788
 2300WAT     H2 7420   4.474   0.852   3.779 -0.2490 -0.0175 -0.1263
 2301WAT      O 7421   6.044   4.488   2.823  0.6309 -0.4796 -0.5486
 2301WAT     H1 7422   6.113   4.511   2.886 -0.7755 -0.6450  1.1382
 2301WAT     H2 7423   6.025   4.570   2.778  0.9561 -0.1008 -0.0182
 2302WAT      O 7424   6.837   3.906   3.520  0.6868  0.1750 -0.4199
 2302WAT     H1 7425   6.844   3.832   3.460  0.7284 -0.3721  0.2504
 2302WAT     H2 7426   6.908   3.893   3.583  0.6502  0.7468 -0.2495
 2303WAT      O 7427   2.663   2.900   4.991  0.6524 -0.0991  0.0796
 2303WAT     H1 7428   2.646   2.991   5.013 -2.8922 -0.6173 -0.0222
 2303WAT     H2 7429   2.612   2.884   4.911 -0.4095 -2.6014  1.1351
 2304WAT      O 7430   6.366   3.109   3.682  0.2582  0.5705  0.3607
 2304WAT     H1 7431   6.281   3.078   3.651  0.0695  1.1520  0.2972
 2304WAT     H2 7432   6.409   3.030   3.715 -0.4775  0.3512  0.8026
 2305WAT      O 7433   4.518   4.263   3.183  0.3318 -0.4643  0.3087
 2305WAT     H1 7434   4.544   4.325   3.114  0.9521 -0.1771  0.7942
 2305WAT     H2 7435   4.432   4.294   3.211  1.0692  0.8280  1.2641
 2306WAT      O 7436   3.821   3.774   2.951 -0.2549  0.1862 -0.4279
 2306WAT     H1 7437   3.783   3.849   2.997 -1.0589 -0.5921  0.2135
 2306WAT     H2 7438   3.826   3.705   3.018  1.4005 -0.0356 -0.7473
 2307WAT      O 7439   4.783   5.987   4.180 -0.0517  0.2903  0.0396
 2307WAT     H1 7440   4.797   6.049   4.109  1.7884 -0.7523 -0.5752
 2307WAT     H2 7441   4.764   5.904   4.136 -1.6069  0.1714  0.8371
 2308WAT      O 7442   4.625   4.599   3.341  0.1974 -0.2717  0.0143
 2308WAT     H1 7443   4.575   4.679   3.359  1.5056  0.8275 -0.9644
 2308WAT     H2 7444   4.681   4.623   3.266  0.8949 -1.9944 -0.0574
 2309WAT      O 7445   4.098   3.785   4.425 -0.5539 -0.1476  0.0891
 2309WAT     H1 7446   4.148   3.858   4.461 -0.6375 -1.0150  2.0762
 2309WAT     H2 7447   4.061   3.820   4.344  1.7779  1.0618 -0.5412
 2310WAT      O 7448   3.142   2.311   2.234 -0.1528  0.1351  0.0927
 2310WAT     H1 7449   3.233   2.284   2.224 -0.7337 -1.2864 -1.6859
 2310WAT     H2 7450   3.140   2.401   2.201  0.9018  0.8168  1.7725
 2311WAT      O 7451   5.764   3.517   0.185 -0.2707  0.6165 -0.2761
 2311WAT     H1 7452   5.725   3.542   0.269 -1.5332 -0.3946 -0.5342
 2311WAT     H2 7453   5.690   3.493   0.130  0.6015  0.4373 -1.4118
 2312WAT      O 7454   4.694   4.111   4.133 -0.4372 -0.0958  0.3159
 2312WAT     H1 7455   4.766   4.173   4.129 -1.5476  1.2128 -0.0280
 2312WAT     H2 7456   4.691   4.072   4.046 -1.6731  1.6669 -0.4675
 2313WAT      O 7457   6.371   3.064   3.048  0.1055 -0.3046  0.3068
 2313WAT     H1 7458   6.298   3.002   3.045  0.6845 -0.9603 -0.6203
 2313WAT     H2 7459   6.392   3.072   3.141 -2.0160  0.9430  0.7449
 2314WAT      O 7460   4.113   3.706   3.619 -0.5877  0.4485  0.3561
 2314WAT     H1 7461   4.169   3.755   3.680  0.5873  0.6366 -0.8469
 2314WAT     H2 7462   4.042   3.673   3.675  0.4399  0.6115  1.8363
 2315WAT      O 7463   5.216   4.835   1.322 -0.0304 -0.6838  0.3398
 2315WAT     H1 7464   5.285   4.895   1.291  0.7162 -2.1040 -0.9272
 2315WAT     H2 7465   5.147   4.892   1.355  0.0721  0.9476 -2.0138
 2316WAT      O 7466   5.304   5.124   3.894 -0.7186 -0.3673  0.0408
 2316WAT     H1 7467   5.292   5.036   3.858  1.3295 -0.6442 -0.0628
 2316WAT     H2 7468   5.325   5.110   3.986 -1.7993  0.1214  0.3831
 2317WAT      O 7469   4.678   5.321   5.412 -0.2536  0.0115  0.0190
 2317WAT     H1 7470   4.589   5.295   5.390 -0.4623  0.6548  0.0831
 2317WAT     H2 7471   4.670   5.369   5.494  0.5397 -2.5944  1.7286
 2318WAT      O 7472   4.688   4.409   4.042 -0.2902 -0.7026 -0.3369
 2318WAT     H1 7473   4.773   4.451   4.030 -1.2506  1.3887 -0.3109
 2318WAT     H2 7474   4.667   4.424   4.135 -0.9074 -0.7442 -0.4647
 2319WAT      O 7475   3.203   4.056   3.028 -0.1001 -0.3465  1.0365
 2319WAT     H1 7476   3.154   4.126   3.071 -1.4418 -1.1229  0.8290
 2319WAT     H2 7477   3.294   4.074   3.049 -0.4807  1.0611  1.5688
 2320WAT      O 7478   4.426   3.316   2.977  0.0838  0.2232  0.3537
 2320WAT     H1 7479   4.422   3.384   2.909 -1.7539  0.1569  0.3429
 2320WAT     H2 7480   4.517   3.318   3.007  0.7401  0.8428 -1.5085
 2321WAT      O 7481   5.342   4.409   3.068  0.0704  0.5247 -0.1869
 2321WAT     H1 7482   5.408   4.374   3.128  0.2804  1.6378  0.2634
 2321WAT     H2 7483   5.323   4.496   3.103 -0.7483  0.6854 -1.0148
 2322WAT      O 7484   3.399   5.586   3.192 -0.7563 -0.0943  0.2399
 2322WAT     H1 7485   3.355   5.577   3.108 -0.1544  0.7133 -0.1734
 2322WAT     H2 7486   3.343   5.538   3.254 -0.8179 -1.3088 -0.7357
 2323WAT      O 7487   4.463   5.430   4.636 -0.3161  0.0251 -0.2951
 2323WAT     H1 7488   4.484   5.522   4.618 -1.7390  0.1419 -1.6077
 2323WAT     H2 7489   4.464   5.389   4.549 -0.2504 -1.0761  0.2203
 2324WAT      O 7490   6.033   2.668   3.724 -0.2940  0.2048 -0.0658
 2324WAT     H1 7491   6.054   2.605   3.793  1.4582 -1.4339 -1.9415
 2324WAT     H2 7492   5.982   2.617   3.661 -0.9194  1.3515 -0.5044
 2325WAT      O 7493   5.081   4.214   2.651  1.5508 -0.3414 -0.2947
 2325WAT     H1 7494   5.111   4.290   2.602  0.8804 -0.3726 -0.7692
 2325WAT     H2 7495   5.050   4.153   2.584  3.0205 -1.4772 -0.0065
 2326WAT      O 7496   0.093   3.360   0.672  0.4578  0.1668 -0.4290
 2326WAT     H1 7497   0.069   3.297   0.740  2.0431  1.6628  1.6244
 2326WAT     H2 7498   0.009   3.393   0.639 -0.4265  0.8059  2.2249
 2327WAT      O 7499   1.101   4.908   3.596 -0.0442  0.0398  0.1927
 2327WAT     H1 7500   1.061   4.956   3.668  0.6370  0.1267  0.5237
 2327WAT     H2 7501   1.172   4.859   3.636  0.8910  0.7435 -0.5350
 2328WAT      O 7502   4.374   4.018   3.607  0.2369 -0.4639  0.1569
 2328WAT     H1 7503   4.371   4.108   3.640 -0.7319 -0.0893 -0.8845
 2328WAT     H2 7504   4.459   3.985   3.636  0.0232  0.2974  1.7797
 2329WAT      O 7505   4.004   4.336   3.367 -0.1296 -0.4279 -0.0621
 2329WAT     H1 7506   3.932   4.306   3.311  0.0489  0.0601 -0.5611
 2329WAT     H2 7507   3.964   4.349   3.453 -0.3471 -1.4734  0.0129
 2330WAT      O 7508   4.069   4.600   4.084 -0.3861  0.2648 -0.0163
 2330WAT     H1 7509   4.044   4.664   4.016 -1.3242  0.0122  0.0798
 2330WAT     H2 7510   4.083   4.653   4.162 -2.4833  0.2545  0.4134
 2331WAT      O 7511   5.022   4.550   3.512  0.7370  0.0178 -0.1804
 2331WAT     H1 7512   4.935   4.520   3.538  0.6843 -0.1845 -0.5735
 2331WAT     H2 7513   5.075   4.470   3.510  1.3533  0.3474  1.6353
 2332WAT      O 7514   5.614   3.710   5.151 -0.5252 -0.1645  0.0930
 2332WAT     H1 7515   5.523   3.741   5.147 -0.3609  0.6581  1.8022
 2332WAT     H2 7516   5.666   3.790   5.143  0.0048 -0.4493  0.6535
 2333WAT      O 7517   3.255   5.162   4.243 -0.4024  0.5358  0.4153
 2333WAT     H1 7518   3.195   5.091   4.222 -1.4245  1.5657 -0.3023
 2333WAT     H2 7519   3.342   5.122   4.241 -0.9688 -0.7226  0.2255
 2334WAT      O 7520   5.361   4.867   4.331 -0.4824  0.0446  0.2955
 2334WAT     H1 7521   5.332   4.786   4.288 -2.3696  1.2400 -0.8227
 2334WAT     H2 7522   5.289   4.889   4.390 -1.8207  2.8155 -2.1346
 2335WAT      O 7523   5.603   3.686   3.588 -0.3449 -0.2564 -0.4450
 2335WAT     H1 7524   5.547   3.656   3.659 -0.6730  0.5694 -0.3425
 2335WAT     H2 7525   5.691   3.693   3.627 -0.1974 -1.3527 -0.5530
 2336WAT      O 7526   6.850   2.409   4.773 -0.1071 -0.1175  0.2758
 2336WAT     H1 7527   6.767   2.448   4.745  0.0282  0.9111  1.2644
 2336WAT     H2 7528   6.853   2.325   4.727 -0.8094  0.6419 -1.2436
 2337WAT      O 7529   4.720   3.399   5.252  0.0819  0.5421 -0.2560
 2337WAT     H1 7530   4.779   3.334   5.214 -0.8287  0.7546 -2.1395
 2337WAT     H2 7531   4.769   3.437   5.324  0.6434 -2.2362  0.9509
 2338WAT      O 7532   3.607   4.226   4.953 -0.1850 -0.0683  0.3511
 2338WAT     H1 7533   3.592   4.195   4.863 -0.8038 -0.3075  0.5335
 2338WAT     H2 7534   3.698   4.255   4.953  0.4862 -2.0092  0.1968
 2339WAT      O 7535   0.008   4.928   3.933 -0.4584  0.0490 -0.0398
 2339WAT     H1 7536   0.084   4.987   3.934 -1.4923  1.4413  1.4752
 2339WAT     H2 7537   0.036   4.854   3.879  1.6632  0.9159 -0.2275
 2340WAT      O 7538   6.313   3.082   5.523 -0.1702  0.2854  0.5176
 2340WAT     H1 7539   6.364   3.159   5.547 -0.4280  0.3738  0.7845
 2340WAT     H2 7540   6.352   3.010   5.573  1.4479 -0.1921 -1.3095
 2341WAT      O 7541   4.784   2.211   4.051  0.0853 -0.2236 -0.7844
 2341WAT     H1 7542   4.794   2.267   4.128 -1.2806 -0.0455 -0.7175
 2341WAT     H2 7543   4.798   2.123   4.084 -2.2104 -0.3156  0.0712
 2342WAT      O 7544   4.985   4.339   3.180 -0.0292  0.0840  0.2959
 2342WAT     H1 7545   5.040   4.261   3.184 -0.5350 -0.2600  0.7815
 2342WAT     H2 7546   4.909   4.318   3.235 -0.4715  0.6841 -0.0662
 2343WAT      O 7547   3.595   3.270   3.972  0.5093 -0.3099  0.1315
 2343WAT     H1 7548   3.558   3.259   3.884  0.1431  0.1715  0.2213
 2343WAT     H2 7549   3.585   3.363   3.990 -1.4768 -0.7557  1.5871
 2344WAT      O 7550   2.362   4.509   5.718  0.1600 -0.4481 -1.1846
 2344WAT     H1 7551   2.391   4.439   5.659  0.2501 -0.2341 -1.3945
 2344WAT     H2 7552   2.440   4.532   5.768  0.5841  0.6730 -2.2929
 2345WAT      O 7553   6.405   5.884   3.335 -0.3903 -0.0343 -0.5988
 2345WAT     H1 7554   6.310   5.895   3.341 -0.1946  1.2301  0.3599
 2345WAT     H2 7555   6.424   5.810   3.393 -0.4126  1.9871  2.1828
 2346WAT      O 7556   5.840   3.405   3.936  0.2836  0.6369  0.2226
 2346WAT     H1 7557   5.783   3.390   4.011 -1.6991 -0.6818 -1.4431
 2346WAT     H2 7558   5.813   3.490   3.902 -0.7483  0.0344 -0.5375
 2347WAT      O 7559   6.802   3.367   4.822 -0.2764  0.1385  0.7319
 2347WAT     H1 7560   6.828   3.387   4.912 -0.5453  0.1379  0.8102
 2347WAT     H2 7561   6.784   3.453   4.783  0.8532  0.2260  0.3616
 2348WAT      O 7562   4.433   4.005   4.887 -0.0128 -0.5010 -0.4727
 2348WAT     H1 7563   4.440   3.922   4.934 -0.5364 -0.2946 -0.0265
 2348WAT     H2 7564   4.455   4.071   4.952 -0.1820 -0.2496 -0.6726
 2349WAT      O 7565   2.924   3.901   4.034 -0.4224  0.5675  0.0399
 2349WAT     H1 7566   2.892   3.811   4.024  0.4826  0.2125  0.2524
 2349WAT     H2 7567   2.926   3.935   3.944 -1.4429  0.6274  0.0273
 2350WAT      O 7568   5.244   5.304   0.822 -0.1954 -0.5680  0.0205
 2350WAT     H1 7569   5.196   5.328   0.742 -0.3994 -0.3744  0.2016
 2350WAT     H2 7570   5.320   5.256   0.790 -0.5673 -0.9758 -0.2603
 2351WAT      O 7571   4.961   1.771   2.507  0.0465 -0.2914  0.5177
 2351WAT     H1 7572   4.874   1.788   2.469 -0.5948 -1.5976  1.3444
 2351WAT     H2 7573   4.995   1.858   2.526 -0.8958  0.2693 -0.2068
 2352WAT      O 7574   5.024   4.613   5.076  0.0247  0.9200 -0.2107
 2352WAT     H1 7575   5.106   4.597   5.028  0.4871 -1.7397  1.2611
 2352WAT     H2 7576   4.956   4.575   5.020  0.5256 -1.8727  0.8949
 2353WAT      O 7577   5.044   4.381   5.274 -0.1205 -0.0462 -0.1966
 2353WAT     H1 7578   4.972   4.431   5.235 -1.4639 -1.4281  0.4232
 2353WAT     H2 7579   5.099   4.357   5.200  0.4797  2.1522 -0.5331
 2354WAT      O 7580   3.680   4.109   5.936  0.0227  0.1988  0.0223
 2354WAT     H1 7581   3.746   4.169   5.902 -0.4335  1.0002  0.5173
 2354WAT     H2 7582   3.597   4.142   5.902 -0.2377 -0.1342  0.3211
 2355WAT      O 7583   6.083   3.231   3.938 -0.0345 -0.5114 -0.2738
 2355WAT     H1 7584   6.081   3.227   3.842  0.3236  1.9768 -0.4416
 2355WAT     H2 7585   6.011   3.289   3.961  0.9144  0.2623  0.8349
 2356WAT      O 7586   3.212   3.658   4.425  0.5627 -0.4873  0.4340
 2356WAT     H1 7587   3.252   3.617   4.348  3.1148  1.3635  0.6633
 2356WAT     H2 7588   3.124   3.683   4.396  0.9987 -0.9917 -1.4618
 2357WAT      O 7589   4.990   3.697   5.432  0.2433  0.2030  0.1871
 2357WAT     H1 7590   4.973   3.765   5.497  2.1140 -0.0872  1.0181
 2357WAT     H2 7591   5.041   3.742   5.364 -0.7667  0.2336 -0.5818
 2358WAT      O 7592   3.619   3.909   4.547  0.1273  0.3433 -0.4992
 2358WAT     H1 7593   3.538   3.910   4.498  0.6454  1.1609 -1.3757
 2358WAT     H2 7594   3.675   3.846   4.501 -0.4757 -1.3368  0.9494
 2359WAT      O 7595   3.992   3.693   3.341  0.4326 -0.2489 -0.4296
 2359WAT     H1 7596   4.038   3.751   3.281  0.2142  1.0654  0.6400
 2359WAT     H2 7597   4.035   3.705   3.425 -0.9405 -0.0668  0.2739
 2360WAT      O 7598   3.256   5.481   3.664 -0.1166  0.0722  0.1004
 2360WAT     H1 7599   3.183   5.522   3.617  0.6363  1.9448  0.5154
 2360WAT     H2 7600   3.251   5.516   3.753  2.0555  1.2828 -0.2019
 2361WAT      O 7601   4.695   5.195   3.315 -0.6523 -0.5416  0.5335
 2361WAT     H1 7602   4.642   5.230   3.387  0.1166 -0.2682  0.9712
 2361WAT     H2 7603   4.766   5.148   3.357  0.2881  0.3364 -0.0234
 2362WAT      O 7604   4.526   4.190   1.106  0.0890 -0.3625 -0.1260
 2362WAT     H1 7605   4.599   4.149   1.152  0.3963 -1.8009 -1.7904
 2362WAT     H2 7606   4.453   4.185   1.168  0.9917 -0.3794  0.9574
 2363WAT      O 7607   5.941   5.135   3.166 -0.4300  0.1201  0.0509
 2363WAT     H1 7608   5.911   5.062   3.111  0.7696  0.9466 -1.8049
 2363WAT     H2 7609   5.949   5.209   3.105  0.5295  1.2167  1.4438
 2364WAT      O 7610   5.079   5.213   0.282  0.1090  0.0485 -0.1462
 2364WAT     H1 7611   5.076   5.126   0.241  0.2841 -1.1614  2.2336
 2364WAT     H2 7612   5.089   5.273   0.209  2.1620 -2.0851 -1.7902
 2365WAT      O 7613   5.938   3.871   3.965  0.6012 -0.1693 -0.1204
 2365WAT     H1 7614   5.976   3.959   3.958  1.3599 -0.4389  0.4579
 2365WAT     H2 7615   6.011   3.816   3.994 -0.0524 -0.8487  0.2663
 2366WAT      O 7616   4.482   3.740   3.731  0.6518  0.1344  0.2612
 2366WAT     H1 7617   4.403   3.783   3.766  1.7066  2.0140  0.4731
 2366WAT     H2 7618   4.468   3.740   3.636  0.9460  1.7304  0.1833
 2367WAT      O 7619   4.056   0.763   5.377  0.3681  0.7814 -0.1860
 2367WAT     H1 7620   3.996   0.800   5.311  0.1537 -0.3397 -0.6338
 2367WAT     H2 7621   4.142   0.796   5.351  0.1581  1.1262 -0.4632
 2368WAT      O 7622   6.149   5.130   3.563 -0.9159  0.1696 -0.1220
 2368WAT     H1 7623   6.087   5.060   3.541 -1.3537  1.1311 -2.1099
 2368WAT     H2 7624   6.220   5.085   3.610 -1.4084 -1.5306 -0.9178
 2369WAT      O 7625   4.215   3.017   2.178  0.0213 -0.2625  0.6846
 2369WAT     H1 7626   4.299   3.051   2.210  1.1091 -0.2313 -2.0075
 2369WAT     H2 7627   4.238   2.959   2.105 -2.2558 -1.1607  0.5867
 2370WAT      O 7628   4.360   3.464   3.220 -0.1553  0.0507 -0.3153
 2370WAT     H1 7629   4.436   3.490   3.271 -0.0720 -0.4381 -0.1779
 2370WAT     H2 7630   4.396   3.432   3.138 -0.1365 -0.9459  0.0620
 2371WAT      O 7631   5.032   2.855   1.407 -0.6118 -0.0295  0.3192
 2371WAT     H1 7632   5.030   2.950   1.420 -0.4158  0.0499 -0.2058
 2371WAT     H2 7633   5.003   2.819   1.491  0.5028  0.4662  0.9461
 2372WAT      O 7634   3.317   4.818   4.114  0.3672 -0.3286 -0.1849
 2372WAT     H1 7635   3.296   4.725   4.104  0.9890 -0.2791 -2.1452
 2372WAT     H2 7636   3.410   4.824   4.095  0.1200  0.8379 -1.0715
 2373WAT      O 7637   4.059   3.797   2.172 -0.0711  0.0436 -0.5292
 2373WAT     H1 7638   3.999   3.767   2.240  0.2472  1.5699  0.4641
 2373WAT     H2 7639   4.074   3.890   2.192  3.6140 -0.5352  0.0376
 2374WAT      O 7640   4.516   3.909   3.334  0.1539  0.1646  0.7341
 2374WAT     H1 7641   4.460   3.943   3.265 -0.3674  1.6886  1.8437
 2374WAT     H2 7642   4.467   3.836   3.372 -1.2345  1.6073  1.8234
 2375WAT      O 7643   6.561   4.367   3.460 -0.2095  0.0796 -0.1326
 2375WAT     H1 7644   6.530   4.306   3.527 -0.0997 -0.0130 -0.1666
 2375WAT     H2 7645   6.564   4.452   3.504 -0.3540  0.0600 -0.0828
 2376WAT      O 7646   3.000   4.252   2.178 -0.5536  0.2650 -0.0559
 2376WAT     H1 7647   2.963   4.328   2.223 -0.4300  0.7904 -0.8314
 2376WAT     H2 7648   2.965   4.177   2.227 -2.2937  0.7566 -0.4808
 2377WAT      O 7649   2.706   4.046   0.968  0.3764  0.6762  0.3407
 2377WAT     H1 7650   2.687   3.971   1.025 -0.3544 -0.2940 -1.1420
 2377WAT     H2 7651   2.621   4.083   0.948  0.3069 -0.7771 -2.4491
 2378WAT      O 7652   4.485   4.203   1.778 -0.1478 -0.0233 -0.3180
 2378WAT     H1 7653   4.463   4.199   1.871  1.5159  0.0364  0.1102
 2378WAT     H2 7654   4.402   4.186   1.733 -0.9546 -0.1881  1.1643
 2379WAT      O 7655   3.563   4.300   2.819 -0.0266  0.4632 -0.2213
 2379WAT     H1 7656   3.484   4.352   2.803 -0.0990  0.2950 -0.4159
 2379WAT     H2 7657   3.609   4.346   2.889 -1.1042 -0.3269  1.0375
 2380WAT      O 7658   5.769   2.940   2.714 -0.2888  0.5786  0.0208
 2380WAT     H1 7659   5.708   2.893   2.657 -0.6842  1.7212 -0.5367
 2380WAT     H2 7660   5.756   2.902   2.801 -2.5541  1.4740  0.1233
 2381WAT      O 7661   6.216   2.003   1.666 -0.2998  0.3082 -0.5731
 2381WAT     H1 7662   6.173   1.977   1.748  1.2598 -0.8461 -0.0730
 2381WAT     H2 7663   6.304   1.965   1.672  0.4602  1.7262 -1.9965
 2382WAT      O 7664   5.748   3.397   2.083 -0.5213  0.0987  0.0762
 2382WAT     H1 7665   5.814   3.330   2.066  0.3150  0.9147  0.0106
 2382WAT     H2 7666   5.750   3.453   2.006 -0.5679  0.7029  0.5002
 2383WAT      O 7667   4.979   4.086   3.734  0.4435 -0.4452 -0.3634
 2383WAT     H1 7668   4.917   4.146   3.693  0.9091 -0.4312 -1.0802
 2383WAT     H2 7669   5.065   4.114   3.701  0.6413 -1.6605 -0.9286
 2384WAT      O 7670   6.147   4.657   1.563 -0.7784 -0.2375 -0.2846
 2384WAT     H1 7671   6.082   4.600   1.605  0.5252 -2.2548 -0.8660
 2384WAT     H2 7672   6.110   4.676   1.476 -0.4492 -1.6803 -0.7552
 2385WAT      O 7673   4.268   3.954   5.613  0.0133 -0.0616  0.4706
 2385WAT     H1 7674   4.181   3.944   5.653 -1.0993 -0.9324 -1.9799
 2385WAT     H2 7675   4.260   3.912   5.528  2.6965  0.4002 -0.0905
 2386WAT      O 7676   4.076   2.916   0.876  0.1329  0.3890  0.3314
 2386WAT     H1 7677   4.011   2.933   0.808 -0.7456  0.1110  1.0871
 2386WAT     H2 7678   4.027   2.916   0.958  1.3248  1.6961  1.0964
 2387WAT      O 7679   7.064   3.533   2.283 -0.4421 -0.1807 -0.5264
 2387WAT     H1 7680   7.138   3.476   2.302 -0.0802  1.1050  2.5508
 2387WAT     H2 7681   6.990   3.473   2.271  0.5411 -1.3815 -0.7476
 2388WAT      O 7682   6.276   3.373   2.655  0.1805  0.9681  0.3035
 2388WAT     H1 7683   6.331   3.332   2.722 -1.0425  1.1558  1.4767
 2388WAT     H2 7684   6.294   3.467   2.663  0.8161  0.9124 -0.3766
 2389WAT      O 7685   5.433   1.168   2.290  0.3071  0.2969  0.3493
 2389WAT     H1 7686   5.521   1.192   2.318 -0.1266  1.8752  0.4590
 2389WAT     H2 7687   5.396   1.122   2.365  0.0920  2.1174  1.4274
 2390WAT      O 7688   3.963   5.680   1.593  0.1132  0.4369  0.3061
 2390WAT     H1 7689   3.877   5.711   1.566  0.0662  0.4776  0.4995
 2390WAT     H2 7690   3.950   5.586   1.611  0.5494 -0.0103 -1.5505
 2391WAT      O 7691   4.291   4.326   2.723  0.1512 -0.1266  0.0953
 2391WAT     H1 7692   4.250   4.352   2.805 -1.4893  1.4227 -1.1138
 2391WAT     H2 7693   4.218   4.315   2.662  1.3699 -0.1834 -1.4375
 2392WAT      O 7694   2.199   4.059   2.438 -0.6031 -0.5009 -0.0634
 2392WAT     H1 7695   2.213   3.976   2.391  0.7931  0.3170 -1.1783
 2392WAT     H2 7696   2.215   4.038   2.530 -2.1541 -1.8715 -0.0564
 2393WAT      O 7697   4.190   3.419   0.806  0.1701 -0.5488  0.0329
 2393WAT     H1 7698   4.116   3.402   0.865 -0.2455 -0.5791 -0.4926
 2393WAT     H2 7699   4.167   3.374   0.725  0.7520 -0.5274 -0.1503
 2394WAT      O 7700   4.921   4.348   1.626  0.2691  0.2496 -0.2632
 2394WAT     H1 7701   4.901   4.260   1.659 -1.2972  1.3830  2.0420
 2394WAT     H2 7702   4.986   4.382   1.688  0.9434  0.6943 -1.1990
 2395WAT      O 7703   4.503   5.508   2.279  0.4987 -0.3770  0.0170
 2395WAT     H1 7704   4.483   5.536   2.189  0.8222  2.0797  0.6255
 2395WAT     H2 7705   4.418   5.506   2.323  0.3418 -1.5682 -0.3021
 2396WAT      O 7706   7.175   3.355   1.369 -0.4854 -0.4592 -0.4156
 2396WAT     H1 7707   7.123   3.398   1.301 -2.6846 -0.7416  0.9909
 2396WAT     H2 7708   7.216   3.281   1.324 -2.8322 -1.3472 -1.2452
 2397WAT      O 7709   2.467   1.284   1.149  0.0504  0.1856 -0.1615
 2397WAT     H1 7710   2.427   1.371   1.145 -0.4014  0.0956  1.5249
 2397WAT     H2 7711   2.561   1.300   1.145  0.0643  0.9559  2.0621
 2398WAT      O 7712   0.261   2.877   5.798 -0.2848 -0.4362 -0.0853
 2398WAT     H1 7713   0.226   2.901   5.884 -0.1576  0.3027 -0.2338
 2398WAT     H2 7714   0.351   2.907   5.800 -1.0312  2.1981 -1.4682
 2399WAT      O 7715   6.372   4.115   2.528 -0.1306 -0.3258  0.0942
 2399WAT     H1 7716   6.458   4.138   2.562  0.0782 -0.5431 -0.2776
 2399WAT     H2 7717   6.386   4.104   2.434 -1.0429  1.9032 -0.3452
 2400WAT      O 7718   5.207   4.559   1.223 -0.0489  0.1361  0.3919
 2400WAT     H1 7719   5.294   4.567   1.183 -0.2793 -0.3731 -0.2441
 2400WAT     H2 7720   5.200   4.634   1.282 -0.1312  1.6116 -1.4027
 2401WAT      O 7721   6.407   4.176   1.058  0.1716  0.5880 -0.1886
 2401WAT     H1 7722   6.399   4.237   1.131  2.7655 -0.1654  0.8547
 2401WAT     H2 7723   6.440   4.230   0.986 -1.7256  1.1936 -0.6642
 2402WAT      O 7724   1.943   4.831   1.886  0.0628 -0.5132  0.2971
 2402WAT     H1 7725   1.985   4.878   1.958 -0.0912 -0.9814  0.7052
 2402WAT     H2 7726   2.006   4.834   1.814 -0.3505  1.1528 -0.0171
 2403WAT      O 7727   2.494   5.660   1.046  0.0797 -0.1385  0.2749
 2403WAT     H1 7728   2.519   5.705   1.126  0.7182 -1.0103  0.5856
 2403WAT     H2 7729   2.402   5.683   1.032 -0.3885 -0.8728  1.8831
 2404WAT      O 7730   4.780   5.031   3.083  0.2932 -0.4235 -0.2343
 2404WAT     H1 7731   4.731   5.085   3.145  0.2159 -0.0336 -0.6353
 2404WAT     H2 7732   4.861   5.079   3.068 -0.3538  0.2735 -1.6392
 2405WAT      O 7733   5.186   5.423   3.202 -0.3918 -0.0369  0.0794
 2405WAT     H1 7734   5.241   5.501   3.199 -1.0254  0.4285  0.1908
 2405WAT     H2 7735   5.234   5.362   3.257  0.5988 -0.1235 -0.8480
 2406WAT      O 7736   4.339   3.745   2.126 -0.4320 -0.2640  0.2782
 2406WAT     H1 7737   4.253   3.768   2.161  1.1390  1.7218  3.2806
 2406WAT     H2 7738   4.337   3.778   2.036 -2.8325 -0.4098  0.2044
 2407WAT      O 7739   2.709   3.513   1.168  0.5126  0.7093 -0.2361
 2407WAT     H1 7740   2.756   3.518   1.085 -0.5471  1.9568 -0.8001
 2407WAT     H2 7741   2.772   3.545   1.233  0.7618  1.5032 -0.8466
 2408WAT      O 7742   4.199   3.354   1.432 -0.3827  0.1498  0.1736
 2408WAT     H1 7743   4.161   3.268   1.451  0.8176 -0.4099  0.1518
 2408WAT     H2 7744   4.167   3.411   1.502 -1.1702 -0.3086  0.2031
 2409WAT      O 7745   4.317   3.584   2.938 -0.1779 -0.4045  0.0903
 2409WAT     H1 7746   4.238   3.633   2.918 -1.1039 -2.2890 -1.2465
 2409WAT     H2 7747   4.321   3.581   3.033 -1.1418  0.6089  0.1762
 2410WAT      O 7748   4.518   2.929   0.234 -0.1240  0.2609 -0.1387
 2410WAT     H1 7749   4.439   2.981   0.222  0.6089  1.9072  1.5947
 2410WAT     H2 7750   4.582   2.990   0.271  1.0034 -1.6999  1.3930
 2411WAT      O 7751   5.271   3.675   1.442  0.3074 -0.2626  0.3216
 2411WAT     H1 7752   5.248   3.642   1.529 -1.6304  0.9360  0.3338
 2411WAT     H2 7753   5.358   3.713   1.453  1.6223 -3.1871  0.8357
 2412WAT      O 7754   4.504   3.503   1.160  0.3697 -0.3298 -0.1384
 2412WAT     H1 7755   4.414   3.517   1.131  0.2527 -2.1430 -0.7609
 2412WAT     H2 7756   4.543   3.448   1.092  1.3096 -1.2691  1.1065
 2413WAT      O 7757   4.803   3.792   2.459  0.0085  0.5181 -0.1550
 2413WAT     H1 7758   4.888   3.812   2.499  0.9344  1.1781 -2.3192
 2413WAT     H2 7759   4.757   3.876   2.458  1.0033  1.1035 -2.6555
 2414WAT      O 7760   6.512   3.901   1.423  0.6059 -0.1311 -0.1132
 2414WAT     H1 7761   6.604   3.923   1.438  0.6734  0.2096 -0.9355
 2414WAT     H2 7762   6.479   3.974   1.370 -0.5154  0.4498  1.3453
 2415WAT      O 7763   5.046   3.382   2.286  0.1106  0.6845  0.3797
 2415WAT     H1 7764   5.127   3.332   2.299 -0.5076 -0.3251  0.4518
 2415WAT     H2 7765   5.045   3.445   2.358 -0.7490 -1.4651  2.3918
 2416WAT      O 7766   4.244   2.774   2.037 -0.0794  0.3689  0.3779
 2416WAT     H1 7767   4.256   2.693   1.988  1.3251  1.1321 -0.6001
 2416WAT     H2 7768   4.198   2.747   2.117  0.1828 -1.3437 -0.0169
 2417WAT      O 7769   3.755   5.032   3.512 -0.1369  0.4234 -0.0343
 2417WAT     H1 7770   3.787   5.094   3.578  0.6175 -0.3594  0.3417
 2417WAT     H2 7771   3.684   4.985   3.556  0.5284 -0.2698  0.3177
 2418WAT      O 7772   4.921   4.542   1.108 -0.7683  0.1991 -0.1629
 2418WAT     H1 7773   4.995   4.524   1.049 -1.3840 -1.0647 -0.6016
 2418WAT     H2 7774   4.938   4.630   1.142  0.7088  0.1055 -0.5782
 2419WAT      O 7775   3.351   5.347   1.372  0.7201  0.4519  0.5726
 2419WAT     H1 7776   3.330   5.255   1.383  2.0182 -0.1390 -1.3256
 2419WAT     H2 7777   3.278   5.382   1.320  0.3470  0.4470  1.0889
 2420WAT      O 7778   4.945   4.502   2.953 -1.0916  0.3728 -0.2312
 2420WAT     H1 7779   4.973   4.438   3.019  0.7677 -1.4026 -2.5504
 2420WAT     H2 7780   5.006   4.575   2.964 -0.7646  0.0715  0.0160
 2421WAT      O 7781   5.097   4.079   1.452  0.4066  0.3357 -0.4101
 2421WAT     H1 7782   5.003   4.093   1.464  0.4128 -0.9560  1.4694
 2421WAT     H2 7783   5.102   4.016   1.379 -0.3850 -1.5765  1.0840
 2422WAT      O 7784   4.510   4.040   0.862 -0.1840 -0.4399  0.0982
 2422WAT     H1 7785   4.462   3.963   0.892  1.1028 -0.7818  1.3818
 2422WAT     H2 7786   4.494   4.106   0.929 -3.1221  1.2923 -2.0479
 2423WAT      O 7787   5.064   4.751   2.482 -0.6004 -0.3728 -0.7509
 2423WAT     H1 7788   5.136   4.688   2.471 -1.7172 -1.5843 -1.3861
 2423WAT     H2 7789   4.998   4.722   2.420 -1.7408  0.5976 -0.0202
 2424WAT      O 7790   5.111   4.590   1.582 -0.0930 -0.1268 -0.5517
 2424WAT     H1 7791   5.128   4.501   1.550  0.7381 -0.4143  0.6141
 2424WAT     H2 7792   5.196   4.634   1.579 -0.4361  0.5361 -0.8257
 2425WAT      O 7793   4.311   4.567   1.899  0.3595 -0.3296  0.3914
 2425WAT     H1 7794   4.241   4.535   1.955  1.8181 -3.1648  0.7645
 2425WAT     H2 7795   4.381   4.593   1.959  0.7060 -0.2572 -0.0347
 2426WAT      O 7796   4.918   3.759   1.502  0.2288  0.0564  0.7680
 2426WAT     H1 7797   4.953   3.806   1.426 -0.7515  1.6165  1.2515
 2426WAT     H2 7798   4.895   3.672   1.467 -0.3291  0.7818 -0.7598
 2427WAT      O 7799   3.300   1.818   5.798  0.9732 -0.1126 -0.2633
 2427WAT     H1 7800   3.243   1.849   5.729  1.4672  0.8156 -0.2604
 2427WAT     H2 7801   3.275   1.869   5.875 -0.9726 -2.5029  0.8446
 2428WAT      O 7802   2.011   4.515   2.514  0.2551  0.0018  0.2738
 2428WAT     H1 7803   2.070   4.472   2.576  0.9915  0.4368 -0.1142
 2428WAT     H2 7804   2.033   4.477   2.429 -0.7841 -0.6262  0.2673
 2429WAT      O 7805   6.126   4.037   1.705  0.3525  0.1968  0.4541
 2429WAT     H1 7806   6.188   3.976   1.665 -0.0108  1.2523 -1.8639
 2429WAT     H2 7807   6.090   3.988   1.779  0.1830 -2.3880 -1.2034
 2430WAT      O 7808   4.029   3.164   2.036  0.2047 -0.4010  0.7652
 2430WAT     H1 7809   3.950   3.192   2.082  0.3391  0.1420  0.6612
 2430WAT     H2 7810   4.081   3.119   2.103  1.1231  1.7457  1.5518
 2431WAT      O 7811   3.617   3.935   5.418  0.2379  0.4443  0.5141
 2431WAT     H1 7812   3.550   3.872   5.396 -0.4822  0.7985  1.6029
 2431WAT     H2 7813   3.637   3.979   5.335 -1.5589  0.9857  0.3318
 2432WAT      O 7814   5.997   5.227   1.251 -0.6497  0.7196 -0.3881
 2432WAT     H1 7815   5.995   5.207   1.157 -0.2004 -0.8096 -0.0967
 2432WAT     H2 7816   5.905   5.239   1.274 -0.8203  0.4550 -0.9086
 2433WAT      O 7817   4.550   3.693   3.118 -0.1368  0.3943 -0.3442
 2433WAT     H1 7818   4.586   3.684   3.030 -3.7194  1.7543 -2.1556
 2433WAT     H2 7819   4.540   3.787   3.130 -0.5049  0.1886  1.1917
 2434WAT      O 7820   3.152   5.756   1.400  0.5721 -0.0750  0.2781
 2434WAT     H1 7821   3.235   5.743   1.354  0.7549 -1.1873  0.8857
 2434WAT     H2 7822   3.107   5.822   1.349  0.1409 -2.2282 -2.3881
 2435WAT      O 7823   4.560   4.754   1.591 -0.1739 -0.2981  0.2770
 2435WAT     H1 7824   4.508   4.684   1.551  0.7465 -0.1430 -1.3088
 2435WAT     H2 7825   4.644   4.750   1.544  1.2675 -0.5519  2.7311
 2436WAT      O 7826   4.149   3.813   1.857 -0.5951  0.3604  0.1631
 2436WAT     H1 7827   4.114   3.771   1.936 -0.1467 -0.1711  0.0891
 2436WAT     H2 7828   4.100   3.774   1.785  0.4417 -0.7403  0.0208
 2437WAT      O 7829   3.328   4.406   1.783  0.3038 -0.3758  0.4762
 2437WAT     H1 7830   3.251   4.376   1.830  0.7919 -0.7186  1.0706
 2437WAT     H2 7831   3.366   4.473   1.841  0.0559  0.3234 -0.1476
 2438WAT      O 7832   4.130   4.805   2.239 -0.1502 -0.4297  0.4775
 2438WAT     H1 7833   4.218   4.816   2.202  0.6780 -0.0254  2.4109
 2438WAT     H2 7834   4.076   4.866   2.189  1.1349  0.9106  0.6408
 2439WAT      O 7835   3.123   3.571   1.361  0.0645  0.0413  0.2541
 2439WAT     H1 7836   3.138   3.496   1.303  0.6056  0.8933 -0.7383
 2439WAT     H2 7837   3.028   3.584   1.360  0.1200  0.5279 -1.0992
 2440WAT      O 7838   6.512   3.569   2.419 -0.1326  0.0477  0.2472
 2440WAT     H1 7839   6.598   3.571   2.378  0.0575  0.0068  0.6438
 2440WAT     H2 7840   6.514   3.640   2.484 -0.3132 -0.1099  0.4262
 2441WAT      O 7841   4.269   3.566   1.037  0.3123 -0.3279 -0.4687
 2441WAT     H1 7842   4.183   3.603   1.054  1.0364  2.1252 -1.6220
 2441WAT     H2 7843   4.254   3.501   0.969 -0.5708  0.5609 -1.1568
 2442WAT      O 7844   2.327   4.082   1.858  0.1013  0.0259  0.1902
 2442WAT     H1 7845   2.299   4.107   1.770  1.1956 -0.5276 -0.3418
 2442WAT     H2 7846   2.398   4.143   1.879  1.6623 -1.5035 -0.4390
 2443WAT      O 7847   2.427   4.190   1.506 -0.3784  0.3872 -0.6729
 2443WAT     H1 7848   2.377   4.188   1.424 -0.9995 -0.4245 -0.2890
 2443WAT     H2 7849   2.383   4.126   1.562  1.1193 -0.3872 -0.3222
 2444WAT      O 7850   4.284   4.028   2.047 -0.5313 -0.1004 -0.2128
 2444WAT     H1 7851   4.207   4.018   1.992 -1.4650 -3.1918  1.4114
 2444WAT     H2 7852   4.250   4.035   2.136  1.0166  0.9088  0.3447
 2445WAT      O 7853   3.768   3.549   1.629 -0.1580 -0.1525  0.2472
 2445WAT     H1 7854   3.751   3.522   1.539  2.0042  0.0446 -0.2608
 2445WAT     H2 7855   3.800   3.470   1.672  0.6912  0.2061  0.2951
 2446WAT      O 7856   4.252   2.895   1.217  0.1552 -0.6185 -0.0865
 2446WAT     H1 7857   4.331   2.938   1.251 -0.3092 -0.2668  0.5632
 2446WAT     H2 7858   4.283   2.846   1.141  0.3304  2.8684 -2.5149
 2447WAT      O 7859   6.305   5.235   1.334 -0.4393 -0.5392  0.8175
 2447WAT     H1 7860   6.327   5.298   1.402  0.1214 -0.9164  0.9950
 2447WAT     H2 7861   6.218   5.261   1.304  0.2517  1.0005  0.0915
 2448WAT      O 7862   4.639   4.648   2.418 -0.1717 -0.1086  0.1672
 2448WAT     H1 7863   4.617   4.721   2.475 -0.1677  0.1217 -0.1242
 2448WAT     H2 7864   4.585   4.576   2.450 -1.0758  0.3491 -0.2935
 2449WAT      O 7865   1.057   4.118   0.942  1.0609 -0.1699 -0.1712
 2449WAT     H1 7866   1.095   4.059   1.007  0.6501  0.7684  0.9662
 2449WAT     H2 7867   0.971   4.141   0.977  1.2007  1.0784 -0.5837
 2450WAT      O 7868   4.739   5.710   1.642  0.1941 -0.0629 -0.0855
 2450WAT     H1 7869   4.757   5.769   1.716  0.9976  1.9547 -1.7917
 2450WAT     H2 7870   4.686   5.762   1.582  0.1359 -1.4117 -1.2466
 2451WAT      O 7871   3.972   3.645   0.995  0.1551  0.8586  0.7710
 2451WAT     H1 7872   3.958   3.737   0.974 -0.1250  0.6100 -0.2002
 2451WAT     H2 7873   3.884   3.607   0.996  0.2746  0.5858  1.1075
 2452WAT      O 7874   4.809   5.698   2.681 -0.6087  0.2285 -0.6887
 2452WAT     H1 7875   4.902   5.674   2.687 -0.7529 -0.1813  0.0966
 2452WAT     H2 7876   4.773   5.640   2.615 -1.0150 -2.0597  1.3760
 2453WAT      O 7877   4.360   4.596   3.209 -0.0392  0.9623  0.6750
 2453WAT     H1 7878   4.401   4.628   3.289 -0.0178  1.9048  0.3004
 2453WAT     H2 7879   4.422   4.620   3.139  1.0426 -1.8231  0.5596
 2454WAT      O 7880   2.801   4.261   1.844  0.5986 -0.1715 -0.1664
 2454WAT     H1 7881   2.854   4.182   1.843  1.2554  0.2520  0.3573
 2454WAT     H2 7882   2.761   4.265   1.757  0.9028 -0.8434 -0.3378
 2455WAT      O 7883   5.444   4.454   1.581  0.2475  0.2434 -0.6421
 2455WAT     H1 7884   5.456   4.481   1.672  1.0977 -0.2691 -0.5907
 2455WAT     H2 7885   5.447   4.535   1.530 -0.7091  0.5817 -0.1753
 2456WAT      O 7886   5.716   3.695   3.167 -0.2741 -0.7983 -0.4841
 2456WAT     H1 7887   5.628   3.686   3.203 -1.3614  3.1959 -1.6164
 2456WAT     H2 7888   5.705   3.676   3.073 -0.1446  0.3850 -0.7548
 2457WAT      O 7889   5.415   4.148   1.834 -0.0868 -0.0346 -0.1558
 2457WAT     H1 7890   5.431   4.128   1.741  0.4638 -0.7317  0.0786
 2457WAT     H2 7891   5.320   4.159   1.840 -0.1990 -0.6680 -0.6800
 2458WAT      O 7892   5.421   3.060   1.998  0.0069 -0.2057  0.0412
 2458WAT     H1 7893   5.416   3.154   2.015 -0.8556 -0.1605 -0.4167
 2458WAT     H2 7894   5.373   3.048   1.916  1.7704 -0.7935 -0.9575
 2459WAT      O 7895   4.616   3.903   1.513  0.1561 -0.1018 -0.0592
 2459WAT     H1 7896   4.542   3.937   1.564  0.7921 -0.8393  1.4074
 2459WAT     H2 7897   4.644   3.825   1.560  1.9288  0.1993 -0.5345
 2460WAT      O 7898   5.316   4.387   2.491 -0.0834 -0.4294  0.0221
 2460WAT     H1 7899   5.285   4.397   2.402 -0.3023 -1.9877 -0.1071
 2460WAT     H2 7900   5.309   4.475   2.529 -2.1292 -0.1824 -0.7981
 2461WAT      O 7901   5.854   3.310   3.313 -0.2486  0.1130  0.5202
 2461WAT     H1 7902   5.866   3.333   3.405 -0.5243 -2.4379  1.2753
 2461WAT     H2 7903   5.787   3.241   3.315  0.6147 -0.8461 -1.4636
 2462WAT      O 7904   4.957   3.120   4.457  0.1634 -0.4695 -0.2021
 2462WAT     H1 7905   5.026   3.063   4.422  1.8700 -0.1205  2.2796
 2462WAT     H2 7906   4.885   3.061   4.476 -0.2450 -0.8817 -2.6833
 2463WAT      O 7907   4.642   2.978   3.209  0.3054  0.2718  0.6982
 2463WAT     H1 7908   4.563   3.021   3.242  0.2552 -1.2944  2.8683
 2463WAT     H2 7909   4.626   2.967   3.115 -0.9377  2.2182  0.6432
 2464WAT      O 7910   3.952   3.577   3.097 -0.3033  0.0991 -0.3472
 2464WAT     H1 7911   3.955   3.625   3.180 -3.7713 -0.5590  0.3116
 2464WAT     H2 7912   3.998   3.495   3.116 -0.5085  0.2147  0.7573
 2465WAT      O 7913   3.090   3.630   1.718 -0.0159 -0.3521  0.1537
 2465WAT     H1 7914   3.177   3.651   1.750 -0.4016 -0.7703  1.5285
 2465WAT     H2 7915   3.082   3.536   1.728 -0.7382 -0.2821  0.3315
 2466WAT      O 7916   3.764   1.947   2.324  0.0823 -0.4034 -0.2781
 2466WAT     H1 7917   3.752   1.943   2.419 -0.8146  0.9407 -0.2999
 2466WAT     H2 7918   3.695   1.891   2.289  0.2744 -0.7236 -0.1511
 2467WAT      O 7919   2.599   4.390   0.280 -0.1855  0.2362 -0.0882
 2467WAT     H1 7920   2.655   4.353   0.348  0.7266 -0.3180 -1.0953
 2467WAT     H2 7921   2.621   4.483   0.279 -0.5543  0.3392  0.6861
 2468WAT      O 7922   5.415   3.382   0.338 -0.6472 -0.3943  0.1275
 2468WAT     H1 7923   5.447   3.302   0.298 -2.0127 -1.3457  0.8646
 2468WAT     H2 7924   5.353   3.418   0.274 -0.0141  0.1133 -0.2163
 2469WAT      O 7925   5.460   3.448   1.641 -0.0236  0.7584 -0.1141
 2469WAT     H1 7926   5.486   3.512   1.707  1.9836  0.5668 -0.6340
 2469WAT     H2 7927   5.504   3.367   1.667 -0.9180  0.1183 -0.5450
 2470WAT      O 7928   4.514   1.232   3.190 -0.3378  0.4170 -0.2045
 2470WAT     H1 7929   4.448   1.199   3.129 -0.5011  1.3400 -0.5551
 2470WAT     H2 7930   4.467   1.296   3.244  0.2286  1.0008 -0.3840
 2471WAT      O 7931   2.914   3.726   1.239 -0.0813  0.7121  0.3985
 2471WAT     H1 7932   2.930   3.769   1.155 -1.1996  0.6253  0.1290
 2471WAT     H2 7933   2.859   3.788   1.288 -0.2254  0.3487  0.7021
 2472WAT      O 7934   5.888   4.638   5.961 -0.7497 -0.0826 -0.0296
 2472WAT     H1 7935   5.900   4.722   5.916  1.8761 -1.3911 -2.0862
 2472WAT     H2 7936   5.826   4.590   5.906 -1.2032  0.0168  0.3932
 2473WAT      O 7937   5.789   2.825   2.318 -0.1534 -0.9463  0.3252
 2473WAT     H1 7938   5.709   2.876   2.307 -1.2070 -2.5375  0.1759
 2473WAT     H2 7939   5.809   2.793   2.230 -0.4412 -2.0741  0.6544
 2474WAT      O 7940   1.938   4.191   2.738  0.1110 -0.0881 -0.0793
 2474WAT     H1 7941   1.988   4.113   2.763  1.0920  0.3836 -0.5391
 2474WAT     H2 7942   2.004   4.258   2.722 -0.6292  0.4052 -1.2137
 2475WAT      O 7943   4.601   3.923   1.893  0.0887  0.3059 -0.3689
 2475WAT     H1 7944   4.597   3.959   1.982  0.7852  1.9046 -0.9473
 2475WAT     H2 7945   4.651   3.842   1.903  2.4261  1.7404  0.3548
 2476WAT      O 7946   4.584   4.380   2.956 -0.0086  0.3394 -0.4659
 2476WAT     H1 7947   4.586   4.450   2.891 -1.2023  0.3908 -0.4850
 2476WAT     H2 7948   4.575   4.300   2.905  0.6928  0.2296 -0.4195
 2477WAT      O 7949   7.102   4.493   2.801 -0.3516  0.0440 -0.4633
 2477WAT     H1 7950   7.119   4.583   2.829 -2.0825 -0.3448  2.2176
 2477WAT     H2 7951   7.007   4.489   2.790 -0.5433 -1.8623  1.2953
 2478WAT      O 7952   4.971   4.302   2.062 -0.1893  0.5135  0.1803
 2478WAT     H1 7953   4.895   4.245   2.048  0.5581 -0.2617 -0.8744
 2478WAT     H2 7954   4.955   4.341   2.148 -0.4688 -1.7532  1.2437
 2479WAT      O 7955   4.538   3.769   1.231  0.4857  0.6717 -0.1168
 2479WAT     H1 7956   4.532   3.677   1.207 -0.2569  0.5840  0.3630
 2479WAT     H2 7957   4.623   3.778   1.273  0.6099  0.2300 -0.2726
 2480WAT      O 7958   4.677   4.511   2.018 -0.1107 -0.0735 -0.0888
 2480WAT     H1 7959   4.641   4.448   2.080 -0.5404  0.3209  0.0710
 2480WAT     H2 7960   4.645   4.482   1.932  1.4405 -1.3050 -0.3064
 2481WAT      O 7961   5.132   3.653   4.481 -0.1189  0.0172  0.3170
 2481WAT     H1 7962   5.223   3.677   4.466  0.6118 -2.5719  0.1624
 2481WAT     H2 7963   5.105   3.706   4.556  2.0502 -0.3428  1.4123
 2482WAT      O 7964   4.840   1.616   1.738 -0.1378 -0.1187  0.9406
 2482WAT     H1 7965   4.893   1.539   1.757 -1.0052 -0.6475  1.2812
 2482WAT     H2 7966   4.902   1.689   1.738  0.5853 -0.7271  1.2960
 2483WAT      O 7967   4.698   3.213   0.155 -0.0403 -0.2954 -0.4449
 2483WAT     H1 7968   4.719   3.137   0.100 -1.9021 -0.8427 -0.4466
 2483WAT     H2 7969   4.775   3.223   0.212  0.8102 -1.3310 -1.3714
 2484WAT      O 7970   3.472   4.064   3.091  0.1110 -0.0375 -0.4219
 2484WAT     H1 7971   3.501   4.017   3.169 -0.2817  0.6717  0.1719
 2484WAT     H2 7972   3.496   4.155   3.108 -2.0889  0.5351 -0.0294
 2485WAT      O 7973   4.211   3.842   4.112  0.2106  0.1815 -0.2206
 2485WAT     H1 7974   4.235   3.927   4.149  1.3877 -0.3595  0.3058
 2485WAT     H2 7975   4.261   3.779   4.164 -0.3847 -0.8083 -0.8308
 2486WAT      O 7976   3.519   2.671   2.101 -0.3066 -0.3127 -0.0468
 2486WAT     H1 7977   3.608   2.645   2.125  0.8036  1.8762 -1.4348
 2486WAT     H2 7978   3.511   2.647   2.009 -0.9872 -0.0718 -0.0548
 2487WAT      O 7979   3.843   3.675   2.308  0.0117  0.6619  0.7056
 2487WAT     H1 7980   3.874   3.630   2.387  0.7118  1.4125  0.8707
 2487WAT     H2 7981   3.761   3.716   2.334 -0.2318  0.1290  0.7774
 2488WAT      O 7982   6.327   3.351   3.604  0.0317  0.1402 -0.0159
 2488WAT     H1 7983   6.373   3.268   3.620  0.7329 -0.0550 -2.5569
 2488WAT     H2 7984   6.235   3.331   3.624  0.3412 -0.9470  0.4146
 2489WAT      O 7985   4.295   4.762   1.697 -0.1716 -0.2881  0.0711
 2489WAT     H1 7986   4.332   4.705   1.764  0.0251  0.3886  0.5448
 2489WAT     H2 7987   4.361   4.829   1.683 -0.9074  0.5480  0.4425
 2490WAT      O 7988   3.944   3.276   0.824  0.1224 -0.0633  0.1973
 2490WAT     H1 7989   3.894   3.334   0.768 -1.7027 -1.9241 -0.2070
 2490WAT     H2 7990   3.950   3.194   0.775 -1.0050 -1.5571  2.3852
 2491WAT      O 7991   6.380   4.449   3.050  0.0347 -0.1418 -0.1822
 2491WAT     H1 7992   6.434   4.410   3.119 -1.7840 -0.6760  1.0126
 2491WAT     H2 7993   6.430   4.434   2.970  1.0531 -1.8139  0.6944
 2492WAT      O 7994   6.108   3.343   1.345  0.3516 -0.4769  0.1609
 2492WAT     H1 7995   6.061   3.340   1.262 -0.1405 -1.5198  0.4618
 2492WAT     H2 7996   6.193   3.381   1.323 -0.3944  0.8734 -0.4936
 2493WAT      O 7997   0.327   3.283   0.752  0.2952  0.2643  0.6102
 2493WAT     H1 7998   0.385   3.360   0.749  2.6768 -1.4438 -0.6993
 2493WAT     H2 7999   0.240   3.318   0.730  1.2124  2.6330  0.4199
 2494WAT      O 8000   3.516   2.385   0.462  0.5086 -0.3709  0.3562
 2494WAT     H1 8001   3.567   2.312   0.428 -0.2139 -0.3758 -0.7250
 2494WAT     H2 8002   3.463   2.347   0.532 -1.8403 -1.5076 -1.9072
 2495WAT      O 8003   5.823   4.881   1.488 -0.5249  0.1325  0.0297
 2495WAT     H1 8004   5.809   4.787   1.481 -0.0911 -0.1411  2.0699
 2495WAT     H2 8005   5.887   4.902   1.420 -1.2333 -0.8737 -0.9769
 2496WAT      O 8006   5.580   3.402   3.546 -0.0170 -0.3667 -0.1427
 2496WAT     H1 8007   5.579   3.498   3.548 -0.4487 -0.3216 -1.3100
 2496WAT     H2 8008   5.521   3.375   3.616 -0.8460  0.2540 -0.5969
 2497WAT      O 8009   5.717   4.858   1.183  0.9363 -0.1799  0.1353
 2497WAT     H1 8010   5.745   4.832   1.271 -1.1016 -1.0780  0.5731
 2497WAT     H2 8011   5.737   4.783   1.128  3.7302  0.9891 -0.5725
 2498WAT      O 8012   7.132   5.233   1.655  0.0343  0.4351 -0.4514
 2498WAT     H1 8013   7.042   5.265   1.662  0.3072  1.2595 -0.5638
 2498WAT     H2 8014   7.172   5.255   1.739 -0.6007 -2.4136  0.7031
 2499WAT      O 8015   4.951   4.119   2.407 -0.0118  0.1974 -0.5578
 2499WAT     H1 8016   4.929   4.201   2.361 -1.0421 -0.0557 -0.5546
 2499WAT     H2 8017   4.921   4.050   2.347 -1.5830 -0.1351  0.5468
 2500WAT      O 8018   4.798   0.024   2.363 -0.0897 -0.2373  0.3784
 2500WAT     H1 8019   4.872   0.080   2.340  0.5542 -0.9116  0.7253
 2500WAT     H2 8020   4.832  -0.065   2.350 -1.6972 -0.5888 -2.1169
 2501WAT      O 8021   4.092   3.697   2.860 -0.5356 -0.5085  0.6883
 2501WAT     H1 8022   4.011   3.709   2.909 -1.8889 -1.5356 -1.1950
 2501WAT     H2 8023   4.093   3.769   2.797  0.4898 -0.0002  1.2483
 2502WAT      O 8024   5.563   3.755   1.465 -0.0079  0.0346  0.7343
 2502WAT     H1 8025   5.553   3.844   1.429  1.4556  0.2313  0.7437
 2502WAT     H2 8026   5.642   3.722   1.423 -0.1884 -1.0416  1.2193
 2503WAT      O 8027   2.722   3.865   1.363  0.2973  0.1650  0.1863
 2503WAT     H1 8028   2.676   3.828   1.438 -1.2903  0.7546 -0.4640
 2503WAT     H2 8029   2.660   3.858   1.290  1.9873 -0.9507 -1.2588
 2504WAT      O 8030   3.837   4.231   3.128  0.4915  0.6294  0.0374
 2504WAT     H1 8031   3.775   4.299   3.100 -1.5754 -1.7815 -1.8350
 2504WAT     H2 8032   3.881   4.205   3.047 -0.5523 -1.8221  0.1633
 2505WAT      O 8033   4.104   2.597   1.622  0.3121  0.0647 -0.1890
 2505WAT     H1 8034   4.079   2.520   1.572  1.3474 -0.8447  0.6291
 2505WAT     H2 8035   4.199   2.602   1.614  0.6188 -0.5131  2.1372
 2506WAT      O 8036   6.099   4.149   3.896  0.2345 -0.2469  0.8625
 2506WAT     H1 8037   6.167   4.092   3.859 -0.4789 -0.1977 -0.5763
 2506WAT     H2 8038   6.125   4.237   3.871 -1.9869 -0.4136 -2.6737
 2507WAT      O 8039   4.930   4.250   0.825  0.2213 -0.0399 -0.3194
 2507WAT     H1 8040   4.967   4.309   0.759 -0.0806  0.3979 -0.1033
 2507WAT     H2 8041   4.894   4.177   0.774 -0.0090  0.2939 -0.6427
 2508WAT      O 8042   4.995   2.950   1.731 -0.1894  0.0704  0.1145
 2508WAT     H1 8043   5.017   3.043   1.742 -1.0462  0.2184  0.6351
 2508WAT     H2 8044   4.900   2.946   1.743 -0.1335 -0.9057  0.3121
 2509WAT      O 8045   5.253   3.139   0.962 -0.3011 -0.8674  0.0270
 2509WAT     H1 8046   5.261   3.062   1.019  0.9828 -0.0218  1.0328
 2509WAT     H2 8047   5.286   3.109   0.877 -0.6198 -1.6569  0.1716
 2510WAT      O 8048   5.664   5.651   3.650  0.2238 -0.6279 -0.0920
 2510WAT     H1 8049   5.655   5.744   3.671  0.1695 -0.5889 -0.2822
 2510WAT     H2 8050   5.594   5.609   3.699  0.0870 -0.5352 -0.2049
 2511WAT      O 8051   3.370   3.982   1.374  0.0877 -0.0005 -0.4023
 2511WAT     H1 8052   3.338   3.904   1.418  2.0909 -2.0311 -2.2607
 2511WAT     H2 8053   3.292   4.021   1.335 -0.8704 -1.5947 -0.1922
 2512WAT      O 8054   4.512   2.979   1.290 -0.1720  0.0940  0.6017
 2512WAT     H1 8055   4.479   3.061   1.254 -0.5492  0.0558  0.8625
 2512WAT     H2 8056   4.600   3.000   1.321  1.0256 -0.3298 -2.1586
 2513WAT      O 8057   4.903   3.867   0.768 -0.1507  0.0775 -0.2687
 2513WAT     H1 8058   4.846   3.922   0.715 -0.0987 -0.5788 -1.0324
 2513WAT     H2 8059   4.913   3.786   0.716  0.1278 -0.4681  0.6114
 2514WAT      O 8060   4.539   4.036   3.037  0.2110  0.4547 -0.0974
 2514WAT     H1 8061   4.452   4.013   3.003 -0.6411 -0.6374  2.5941
 2514WAT     H2 8062   4.524   4.112   3.092  1.3120  1.3061 -0.9250
 2515WAT      O 8063   5.538   2.311   1.003 -0.2120 -0.1050  0.1088
 2515WAT     H1 8064   5.574   2.282   1.087 -0.0296 -0.0838  0.0376
 2515WAT     H2 8065   5.481   2.385   1.027 -0.3010 -0.2124  0.2339
 2516WAT      O 8066   5.990   3.699   5.283  0.1064  0.1133  0.1600
 2516WAT     H1 8067   5.941   3.674   5.361 -0.1859  0.9329  0.2442
 2516WAT     H2 8068   6.014   3.616   5.242  0.1031 -0.3170  1.0208
 2517WAT      O 8069   4.793   4.057   5.964  0.2468 -0.2802 -0.2116
 2517WAT     H1 8070   4.867   4.022   6.014 -1.0986 -1.5262  1.0029
 2517WAT     H2 8071   4.718   4.005   5.993 -0.9911  0.4381 -1.9566
 2518WAT      O 8072   5.709   3.041   1.915  0.3703  0.3546 -0.3227
 2518WAT     H1 8073   5.752   3.092   1.984  0.4615 -1.7671  1.2655
 2518WAT     H2 8074   5.616   3.058   1.929  0.4536  1.3877 -0.8981
 2519WAT      O 8075   3.647   4.413   5.284  0.0684 -0.5323  0.2017
 2519WAT     H1 8076   3.699   4.369   5.217  1.0387 -1.7064  1.6637
 2519WAT     H2 8077   3.648   4.353   5.359 -1.5132  0.4455  1.0611
 2520WAT      O 8078   3.701   3.184   1.084 -0.8979 -0.6325  0.1072
 2520WAT     H1 8079   3.637   3.250   1.111  0.8488  1.5283 -0.7315
 2520WAT     H2 8080   3.786   3.225   1.098  0.2737 -2.4700 -1.0633
 2521WAT      O 8081   2.885   2.768   5.074  0.0082 -0.4000 -0.1437
 2521WAT     H1 8082   2.816   2.795   5.013 -1.9572  0.0071  2.1418
 2521WAT     H2 8083   2.840   2.712   5.137  1.8890 -0.5019  1.1598
 2522WAT      O 8084   4.598   3.360   4.029 -0.5933  0.1952 -0.4112
 2522WAT     H1 8085   4.513   3.319   4.010 -0.6209 -0.0381  0.2092
 2522WAT     H2 8086   4.658   3.286   4.039 -0.5397  0.3221  0.2209
 2523WAT      O 8087   5.410   2.603   0.104  0.0393 -0.3605 -0.0075
 2523WAT     H1 8088   5.349   2.539   0.067 -0.5208 -0.1551  0.5299
 2523WAT     H2 8089   5.456   2.555   0.173  0.8287 -0.6464 -0.7337
 2524WAT      O 8090   3.887   4.811   4.615 -0.6287  0.1980 -0.2354
 2524WAT     H1 8091   3.859   4.856   4.536 -0.9252  0.0861 -0.1935
 2524WAT     H2 8092   3.920   4.881   4.672  1.6688  0.0857 -1.2988
 2525WAT      O 8093   4.013   4.063   0.633  0.3781  0.6588  0.0166
 2525WAT     H1 8094   3.920   4.041   0.623 -0.2128  2.1967  1.5605
 2525WAT     H2 8095   4.027   4.064   0.728  1.5890  1.8890 -0.1444
 2526WAT      O 8096   3.713   1.759   5.190  0.1328 -0.0208  0.4128
 2526WAT     H1 8097   3.771   1.783   5.263 -0.3546  0.3948  0.6658
 2526WAT     H2 8098   3.741   1.670   5.166  0.2470 -0.1898  1.1562
 2527WAT      O 8099   3.428   3.605   0.727 -0.2680  0.2339  0.1985
 2527WAT     H1 8100   3.498   3.629   0.667 -1.7895  1.3604 -1.2216
 2527WAT     H2 8101   3.349   3.638   0.686 -1.4766  0.4575  2.5165
 2528WAT      O 8102   4.970   4.785   0.575  0.1864  0.2833  0.0746
 2528WAT     H1 8103   4.961   4.874   0.540  0.3599  0.6622  0.9592
 2528WAT     H2 8104   4.904   4.734   0.529  0.9042  0.5884 -1.3328
 2529WAT      O 8105   0.657   2.548   0.229 -0.3951 -0.3752  0.0495
 2529WAT     H1 8106   0.566   2.522   0.212 -0.8466  0.7390  0.6500
 2529WAT     H2 8107   0.678   2.609   0.158 -0.0903 -0.6705 -0.1174
 2530WAT      O 8108   4.834   3.498   1.478 -0.4533  0.3791  0.4671
 2530WAT     H1 8109   4.814   3.443   1.555  0.9688  0.8781  1.2322
 2530WAT     H2 8110   4.780   3.461   1.408 -0.8226 -0.9074  1.3820
 2531WAT      O 8111   3.892   1.726   0.109 -0.5526  0.7671 -0.2706
 2531WAT     H1 8112   3.952   1.784   0.061 -1.3256  1.4012 -0.4841
 2531WAT     H2 8113   3.863   1.662   0.044 -0.3377  0.6356 -0.2389
 2532WAT      O 8114   5.899   3.737   0.992 -0.1847 -0.2370  0.2355
 2532WAT     H1 8115   5.990   3.738   0.963  0.5380  0.9625  2.3129
 2532WAT     H2 8116   5.868   3.826   0.978 -1.3804 -0.8611 -1.3163
 2533WAT      O 8117   6.111   2.361   1.071 -0.2115 -0.3288  0.2343
 2533WAT     H1 8118   6.152   2.316   1.145  0.8466  2.2624  1.3520
 2533WAT     H2 8119   6.184   2.404   1.026 -1.1577  0.3008 -0.7350
 2534WAT      O 8120   3.906   2.052   1.945 -0.3385  0.1546  0.1151
 2534WAT     H1 8121   3.939   2.045   1.856 -0.2593 -3.0564  0.2878
 2534WAT     H2 8122   3.814   2.026   1.939 -0.8394  1.6994  0.7360
 2535WAT      O 8123   2.928   4.264   0.085 -0.4293  0.2652 -0.1024
 2535WAT     H1 8124   2.982   4.185   0.093  0.0809  0.3946 -1.8911
 2535WAT     H2 8125   2.888   4.274   0.172  0.6589 -1.1017  0.6050
 2536WAT      O 8126   5.524   2.972   5.600  0.0668 -0.9870 -0.1989
 2536WAT     H1 8127   5.584   3.031   5.644  0.1176 -1.5789  0.5377
 2536WAT     H2 8128   5.538   2.989   5.506  1.2379 -0.9954 -0.0319
 2537WAT      O 8129   6.459   3.563   0.920  0.1514  0.1280 -0.1475
 2537WAT     H1 8130   6.400   3.587   0.848  0.4726  0.6849 -0.2344
 2537WAT     H2 8131   6.517   3.639   0.928  1.2810 -0.6827 -0.4976
 2538WAT      O 8132   3.953   1.286   5.625  0.6514  0.8817 -0.7609
 2538WAT     H1 8133   3.937   1.283   5.531 -3.1809  1.2266 -0.2911
 2538WAT     H2 8134   3.946   1.378   5.648  0.5762  0.7028 -0.0382
 2539WAT      O 8135   4.044   4.250   2.887 -0.4959  0.0918 -0.3010
 2539WAT     H1 8136   4.006   4.225   2.803  0.1784  1.0734 -0.9242
 2539WAT     H2 8137   4.020   4.342   2.897  1.9349  0.8606 -0.8842
 2540WAT      O 8138   3.058   3.093   0.579 -0.5773  0.0881  0.2323
 2540WAT     H1 8139   3.153   3.101   0.590 -0.5595  1.3358 -0.6094
 2540WAT     H2 8140   3.030   3.037   0.651  0.8293 -0.5177  0.3375
 2541WAT      O 8141   4.806   3.153   0.849 -0.1853  0.4110 -0.0577
 2541WAT     H1 8142   4.802   3.193   0.762 -0.2850 -0.0757 -0.2795
 2541WAT     H2 8143   4.873   3.204   0.896  0.7635 -0.0881 -0.8189
 2542WAT      O 8144   3.145   5.377   4.376  0.3587 -0.4307  0.3975
 2542WAT     H1 8145   3.057   5.361   4.410 -0.7611  1.0897 -1.5523
 2542WAT     H2 8146   3.173   5.292   4.343 -1.2113 -0.5979 -0.6474
 2543WAT      O 8147   7.061   3.675   5.065  0.2492  0.5323 -0.3606
 2543WAT     H1 8148   7.051   3.731   5.142 -1.2517  1.9303 -1.5073
 2543WAT     H2 8149   6.996   3.709   5.002 -0.4716 -2.2662 -1.2552
 2544WAT      O 8150   3.038   3.830   0.962 -0.2634 -0.4164 -0.3282
 2544WAT     H1 8151   2.966   3.841   0.900 -0.1822  1.0285 -0.1942
 2544WAT     H2 8152   3.071   3.742   0.944 -0.6286 -0.2625 -1.9315
 2545WAT      O 8153   6.713   3.433   0.617  0.1407 -0.2764 -1.1580
 2545WAT     H1 8154   6.709   3.529   0.619  0.2945 -0.2746 -0.6471
 2545WAT     H2 8155   6.795   3.413   0.573  0.6362 -0.1527 -0.3148
 2546WAT      O 8156   3.763   5.128   0.333  0.0640 -0.1719 -0.4879
 2546WAT     H1 8157   3.830   5.077   0.288 -0.2900 -0.0299 -1.1858
 2546WAT     H2 8158   3.769   5.215   0.295  0.0824  0.0800  0.0841
 2547WAT      O 8159   4.607   3.486   0.455 -0.6342 -0.9072  0.1605
 2547WAT     H1 8160   4.573   3.526   0.535 -0.4494 -0.5403  0.0564
 2547WAT     H2 8161   4.541   3.503   0.389 -1.0595 -1.7109  0.3617
 2548WAT      O 8162   6.024   3.480   0.099 -0.1245  0.1939  0.1000
 2548WAT     H1 8163   6.056   3.391   0.110  0.8478  0.6071  0.7891
 2548WAT     H2 8164   5.933   3.477   0.127 -0.2894 -0.7023 -0.4890
 2549WAT      O 8165   3.369   4.310   0.571 -0.0153  0.0128 -0.1894
 2549WAT     H1 8166   3.387   4.329   0.479  0.0599 -1.4973 -0.5153
 2549WAT     H2 8167   3.410   4.225   0.586 -3.1887 -1.6165  0.1680
 2550WAT      O 8168   4.268   4.286   0.269 -0.1481  0.5580  0.0446
 2550WAT     H1 8169   4.363   4.296   0.269 -0.0966  0.1669  1.1026
 2550WAT     H2 8170   4.251   4.212   0.328 -0.9587 -1.0327 -2.0725
 2551WAT      O 8171   5.111   4.939   0.995  0.3032  0.2099 -0.1253
 2551WAT     H1 8172   5.065   4.874   0.942 -0.8033 -0.2357  1.3342
 2551WAT     H2 8173   5.203   4.926   0.973  0.0498 -1.3720 -0.3969
 2552WAT      O 8174   5.579   3.345   5.618 -0.0649 -0.1401 -0.3037
 2552WAT     H1 8175   5.595   3.439   5.608 -1.6398  0.0399 -1.4789
 2552WAT     H2 8176   5.662   3.304   5.591  0.3815  0.8783 -0.5375
 2553WAT      O 8177   2.461   2.621   1.091  0.2358  0.1535  0.6435
 2553WAT     H1 8178   2.436   2.646   1.180 -0.9271  1.2595  0.0418
 2553WAT     H2 8179   2.500   2.700   1.054 -1.3499  0.4149 -0.5394
 2554WAT      O 8180   4.393   4.311   3.733  0.2417  0.1201 -0.3339
 2554WAT     H1 8181   4.339   4.335   3.808  0.3537 -1.3415  0.2441
 2554WAT     H2 8182   4.482   4.306   3.767  0.3764 -0.0060 -0.6911
 2555WAT      O 8183   5.831   2.724   0.676  0.1955 -0.3704  0.1386
 2555WAT     H1 8184   5.790   2.659   0.733  0.2643  0.4710  1.1908
 2555WAT     H2 8185   5.881   2.780   0.736  0.3579  0.4881 -0.7672
 2556WAT      O 8186   4.121   4.455   4.860  0.0902 -0.2014  0.1732
 2556WAT     H1 8187   4.044   4.404   4.835  0.2683 -0.8716  0.9417
 2556WAT     H2 8188   4.110   4.470   4.954  1.1346 -0.7566  0.4018
 2557WAT      O 8189   5.668   3.145   1.081  0.4929 -0.0024 -0.3084
 2557WAT     H1 8190   5.648   3.145   0.987  1.7178  0.7688 -0.5881
 2557WAT     H2 8191   5.582   3.145   1.123 -0.0960  0.7761 -1.4466
 2558WAT      O 8192   4.419   3.069   1.937 -0.2816  0.1473 -0.2979
 2558WAT     H1 8193   4.400   3.004   1.870  1.4238 -0.0488 -0.6507
 2558WAT     H2 8194   4.404   3.153   1.893 -1.6169  0.0239 -0.1175
 2559WAT      O 8195   6.170   2.350   0.440  0.4796  0.1276  0.3630
 2559WAT     H1 8196   6.237   2.394   0.387 -0.1639  2.3651  1.3259
 2559WAT     H2 8197   6.105   2.417   0.458 -0.9988 -1.4552  1.2288
 2560WAT      O 8198   3.874   4.324   3.634  0.1357 -0.7213 -0.3418
 2560WAT     H1 8199   3.855   4.316   3.727  1.1667 -0.9563 -0.1466
 2560WAT     H2 8200   3.969   4.333   3.629 -0.0274  1.1410 -1.2387
 2561WAT      O 8201   5.982   2.618   0.958  0.6143 -0.6184  0.5426
 2561WAT     H1 8202   6.041   2.550   0.927  2.7257 -0.4353  3.6530
 2561WAT     H2 8203   6.026   2.700   0.934 -1.1518 -0.2515 -1.8124
 2562WAT      O 8204   3.805   5.654   5.449  0.2213 -0.0456  0.2496
 2562WAT     H1 8205   3.814   5.560   5.465  0.7882 -0.0060  0.1689
 2562WAT     H2 8206   3.759   5.687   5.526  1.9409 -0.0358  1.3076
 2563WAT      O 8207   3.703   3.596   0.115  0.0486  0.2051 -0.1265
 2563WAT     H1 8208   3.702   3.664   0.048  0.1004  1.8949  1.5035
 2563WAT     H2 8209   3.613   3.591   0.146  0.2520  0.3028  0.4905
 2564WAT      O 8210   5.526   3.941   1.939 -0.0545  1.1356 -0.3142
 2564WAT     H1 8211   5.473   4.020   1.934 -0.7249  0.9447  2.3346
 2564WAT     H2 8212   5.606   3.969   1.984  0.0616  0.4762 -0.0957
 2565WAT      O 8213   3.654   3.633   0.544  0.7920  0.1195 -1.0222
 2565WAT     H1 8214   3.738   3.676   0.560  0.7216  0.0503 -0.4286
 2565WAT     H2 8215   3.621   3.674   0.464  0.6573  1.3024 -0.3936
 2566WAT      O 8216   5.471   4.982   1.333  0.2200 -0.0516  0.1070
 2566WAT     H1 8217   5.528   4.973   1.257 -1.5536 -0.0054 -1.3090
 2566WAT     H2 8218   5.497   5.065   1.373  0.7735  0.2473 -0.8458
 2567WAT      O 8219   5.368   5.087   0.670  0.7934 -0.4590 -0.5010
 2567WAT     H1 8220   5.444   5.139   0.695 -0.4673  0.9109  0.6722
 2567WAT     H2 8221   5.392   4.997   0.691  0.8561  0.2762  3.2618
 2568WAT      O 8222   3.685   5.152   0.586  0.0539  0.1428 -0.2614
 2568WAT     H1 8223   3.765   5.137   0.636  0.3656 -2.6323 -1.3912
 2568WAT     H2 8224   3.711   5.139   0.495 -1.6862 -1.0881 -0.6454
 2569WAT      O 8225   3.958   0.289   1.937 -0.2180 -0.0525 -0.2987
 2569WAT     H1 8226   3.959   0.330   1.851  0.3587 -1.0748 -0.7972
 2569WAT     H2 8227   3.880   0.325   1.980 -1.2404 -0.5005 -1.7270
 2570WAT      O 8228   3.473   5.574   5.620  0.3039 -0.4019  0.4998
 2570WAT     H1 8229   3.430   5.653   5.652  1.6199  0.1494  0.9982
 2570WAT     H2 8230   3.565   5.599   5.612  0.6991 -1.8087  0.4077
 2571WAT      O 8231   4.732   4.080   0.670  0.3318 -0.0809  0.7625
 2571WAT     H1 8232   4.688   4.096   0.753 -1.9106 -2.6844  0.2221
 2571WAT     H2 8233   4.668   4.104   0.603  0.9228 -0.9083 -0.1379
 2572WAT      O 8234   5.370   4.172   1.556 -0.5767  0.1281 -0.5740
 2572WAT     H1 8235   5.289   4.161   1.507 -1.1268  1.1991  0.0614
 2572WAT     H2 8236   5.391   4.265   1.547  0.6691 -0.1672 -0.8655
 2573WAT      O 8237   4.634   3.747   5.392  0.0398 -0.3919 -0.0782
 2573WAT     H1 8238   4.585   3.802   5.454 -3.1191 -2.7659 -0.1841
 2573WAT     H2 8239   4.631   3.660   5.432  1.6207 -1.1878 -1.6258
 2574WAT      O 8240   2.867   2.449   5.209 -1.1008 -0.0136 -0.0474
 2574WAT     H1 8241   2.840   2.530   5.254 -1.7202 -0.5189  0.5261
 2574WAT     H2 8242   2.931   2.409   5.268 -0.8054  0.0466 -0.3244
 2575WAT      O 8243   5.368   3.474   5.224 -0.1616  0.5697 -0.3826
 2575WAT     H1 8244   5.298   3.454   5.162  0.6356 -0.9859 -0.8250
 2575WAT     H2 8245   5.360   3.406   5.291  1.0777  0.2051 -0.5812
 2576WAT      O 8246   2.540   4.220   1.958 -0.3374  0.1397 -0.8045
 2576WAT     H1 8247   2.550   4.292   2.020 -0.0004 -1.4184  1.0488
 2576WAT     H2 8248   2.628   4.208   1.922 -0.2062  0.1305 -0.4874
 2577WAT      O 8249   5.096   5.640   0.915 -0.2417 -0.2701 -0.6036
 2577WAT     H1 8250   5.054   5.645   0.829 -0.4135  0.8607 -0.4622
 2577WAT     H2 8251   5.036   5.685   0.974 -0.4554 -1.6306  0.2654
 2578WAT      O 8252   5.380   4.082   1.042 -0.2049  0.5684  0.2495
 2578WAT     H1 8253   5.290   4.103   1.019  0.0532  0.5025 -0.8853
 2578WAT     H2 8254   5.422   4.061   0.959  0.7615  0.2111  0.8046
 2579WAT      O 8255   3.865   5.697   0.706  0.0213  0.9416  0.1027
 2579WAT     H1 8256   3.958   5.717   0.712  0.3700 -0.6964  0.6822
 2579WAT     H2 8257   3.852   5.625   0.768 -1.7651  1.5704  0.5186
 2580WAT      O 8258   4.097   4.615   1.110 -0.5354  0.0134  0.3398
 2580WAT     H1 8259   4.179   4.664   1.118 -1.0227  0.6245  2.0665
 2580WAT     H2 8260   4.059   4.617   1.198 -0.8065 -3.0979  0.4051
 2581WAT      O 8261   4.894   4.061   1.211 -0.1351 -0.1073 -0.0609
 2581WAT     H1 8262   4.846   3.994   1.162  0.6825 -0.5501 -0.2782
 2581WAT     H2 8263   4.838   4.081   1.286 -0.2887 -1.2123  0.1312
 2582WAT      O 8264   1.037   3.716   2.209  0.2911 -0.4664 -0.6080
 2582WAT     H1 8265   1.021   3.810   2.200 -0.4473 -0.3906  1.1543
 2582WAT     H2 8266   0.949   3.677   2.207  0.2623 -0.7252  2.2762
 2583WAT      O 8267   2.158   1.595   5.328  0.9450  0.4427  0.9000
 2583WAT     H1 8268   2.157   1.504   5.300 -2.6868  1.1849 -2.3086
 2583WAT     H2 8269   2.136   1.593   5.421  2.5933 -1.8903  1.3163
 2584WAT      O 8270   5.097   3.907   0.942  0.0154  0.1440 -0.3885
 2584WAT     H1 8271   5.011   3.894   0.902 -0.8275 -0.3107  1.4549
 2584WAT     H2 8272   5.097   3.998   0.970 -0.5528 -0.2524  1.0190
 2585WAT      O 8273   6.032   3.020   0.521 -0.1169  0.1457 -0.5263
 2585WAT     H1 8274   6.097   3.045   0.588 -0.7452 -0.7707  0.4497
 2585WAT     H2 8275   6.083   3.016   0.440  0.6690  1.2833 -0.1290
 2586WAT      O 8276   5.355   4.048   0.066  0.5653 -0.2607 -0.2544
 2586WAT     H1 8277   5.304   4.042   0.147  1.2062 -0.1220  0.1606
 2586WAT     H2 8278   5.336   4.136   0.033  0.8906 -0.0443  0.1360
 2587WAT      O 8279   6.231   3.239   0.632  0.8741  0.0475 -0.3930
 2587WAT     H1 8280   6.165   3.291   0.585  1.2555  0.7275 -0.1948
 2587WAT     H2 8281   6.315   3.276   0.603  1.1220  0.3274  0.6373
 2588WAT      O 8282   4.949   3.899   5.601  0.1325 -0.0978 -0.1495
 2588WAT     H1 8283   4.990   3.984   5.582 -1.4706  0.5598 -0.7989
 2588WAT     H2 8284   4.981   3.877   5.688 -0.6406  1.9641  0.7223
 2589WAT      O 8285   3.960   3.729   1.675  0.0505  0.0121 -0.0227
 2589WAT     H1 8286   3.961   3.767   1.587  0.6880 -0.8082 -0.3762
 2589WAT     H2 8287   3.881   3.674   1.676  0.0226  0.0512 -0.0700
 2590WAT      O 8288   6.797   4.702   1.917  0.2178 -0.4922  0.2730
 2590WAT     H1 8289   6.822   4.631   1.975 -0.3381  0.4691  1.7622
 2590WAT     H2 8290   6.754   4.659   1.843  0.7250 -1.7360  0.6808
 2591WAT      O 8291   5.740   3.906   5.537  0.2895  0.1112 -0.2601
 2591WAT     H1 8292   5.724   3.977   5.475 -1.3969  0.7329  0.8040
 2591WAT     H2 8293   5.832   3.916   5.562  0.2838  1.4553 -0.6965
 2592WAT      O 8294   3.961   1.998   4.568 -0.1794  0.5514  0.1561
 2592WAT     H1 8295   4.027   2.007   4.499 -0.9119 -0.3454 -0.6913
 2592WAT     H2 8296   3.932   1.907   4.562 -0.5786  0.5806  1.3647
 2593WAT      O 8297   5.259   2.848   0.962  0.4423 -0.3175 -0.0445
 2593WAT     H1 8298   5.187   2.891   0.915  0.0079 -1.7154 -0.7312
 2593WAT     H2 8299   5.220   2.821   1.045  0.8281  0.9373  0.5614
 2594WAT      O 8300   5.340   3.940   1.270 -0.1635  0.4158 -0.1155
 2594WAT     H1 8301   5.318   4.005   1.202 -1.9476  0.7305  0.7071
 2594WAT     H2 8302   5.258   3.926   1.316  0.4057 -1.7956  0.3086
 2595WAT      O 8303   4.004   5.935   4.181  0.2757  0.2540 -0.2395
 2595WAT     H1 8304   3.940   5.887   4.233  0.3060 -0.2852 -0.6867
 2595WAT     H2 8305   4.078   5.949   4.240  0.1267  0.0443 -0.0011
 2596WAT      O 8306   3.850   4.311   0.578  1.3776 -0.3244  0.0766
 2596WAT     H1 8307   3.925   4.264   0.615  0.3430 -0.7575  1.7641
 2596WAT     H2 8308   3.776   4.283   0.631  0.1473  0.7259 -1.0061
 2597WAT      O 8309   5.937   3.649   4.848 -0.3006  0.6711 -0.3507
 2597WAT     H1 8310   5.985   3.609   4.920  0.7378  0.4822 -1.1215
 2597WAT     H2 8311   5.899   3.575   4.800  0.5170  0.6666 -1.0174
 2598WAT      O 8312   4.204   4.398   6.006  0.5294  0.1270  0.6937
 2598WAT     H1 8313   4.215   4.462   6.077 -1.7032  1.1667  0.1922
 2598WAT     H2 8314   4.166   4.321   6.049  2.0131 -0.4203  1.0823
 2599WAT      O 8315   6.267   3.474   5.872  0.0273 -0.4608 -0.5509
 2599WAT     H1 8316   6.235   3.385   5.857 -0.4865 -0.1034 -1.7289
 2599WAT     H2 8317   6.281   3.509   5.784 -1.6834  1.2851 -0.1987
 2600WAT      O 8318   4.173   3.936   0.868  0.0664  0.1656 -0.2485
 2600WAT     H1 8319   4.250   3.902   0.914  0.7836  1.0367 -0.7538
 2600WAT     H2 8320   4.154   4.020   0.911 -1.8325 -0.9209  1.1556
 2601WAT      O 8321   3.920   3.954   2.489 -0.4340  0.2321 -0.1365
 2601WAT     H1 8322   3.837   3.925   2.527 -0.0783 -0.9535 -0.2079
 2601WAT     H2 8323   3.902   3.965   2.396 -0.8588  1.3850  0.0717
 2602WAT      O 8324   3.800   2.550   1.796 -0.0011  0.3126 -0.3296
 2602WAT     H1 8325   3.842   2.630   1.765  2.8028 -1.1660 -0.6387
 2602WAT     H2 8326   3.825   2.545   1.889  0.2879 -0.4481 -0.4432
 2603WAT      O 8327   5.291   3.828   2.128  0.1134  0.5097 -0.1069
 2603WAT     H1 8328   5.361   3.849   2.066 -0.2176  0.3376 -0.5460
 2603WAT     H2 8329   5.298   3.733   2.140 -0.4110  0.3995 -0.6130
 2604WAT      O 8330   6.204   2.862   1.524 -0.0066 -0.3744 -0.8884
 2604WAT     H1 8331   6.188   2.933   1.462 -0.2164  0.0118 -0.3990
 2604WAT     H2 8332   6.116   2.830   1.547  0.0985 -1.0223 -1.3652
 2605WAT      O 8333   3.831   2.382   0.898  0.1778  0.2361 -0.0530
 2605WAT     H1 8334   3.754   2.325   0.890 -1.3264  2.3806 -2.3430
 2605WAT     H2 8335   3.796   2.468   0.920  2.3164  0.5977  2.5179
 2606WAT      O 8336   3.374   3.326   1.505 -0.0429  0.0539  0.2366
 2606WAT     H1 8337   3.426   3.279   1.571  0.8703  0.2780 -0.3080
 2606WAT     H2 8338   3.418   3.411   1.496 -1.8198  1.1536  1.3999
 2607WAT      O 8339   7.212   3.583   0.481  0.3396 -0.9565 -0.0073
 2607WAT     H1 8340   7.135   3.527   0.483  0.8265 -1.6443 -0.1864
 2607WAT     H2 8341   7.178   3.671   0.463 -0.5168 -1.0233  1.1896
 2608WAT      O 8342   4.332   2.250   0.991 -0.0340  0.6068  0.3587
 2608WAT     H1 8343   4.319   2.209   1.076 -0.2467  1.2817  0.6569
 2608WAT     H2 8344   4.375   2.183   0.939 -1.1513 -0.3103  0.5632
 2609WAT      O 8345   4.766   4.125   2.021 -0.1209 -0.3138 -0.1031
 2609WAT     H1 8346   4.687   4.093   2.064  1.1033 -3.6199 -0.0480
 2609WAT     H2 8347   4.838   4.074   2.059  1.4717 -0.8362 -3.3850
 2610WAT      O 8348   5.458   4.527   5.068 -0.0255 -0.2316 -0.1550
 2610WAT     H1 8349   5.425   4.576   5.143 -0.4180 -0.9808  0.1739
 2610WAT     H2 8350   5.381   4.514   5.012  0.0856 -0.4179 -0.2667
 2611WAT      O 8351   4.832   2.796   4.819 -0.1502  0.6029 -0.0334
 2611WAT     H1 8352   4.806   2.722   4.765 -1.6131  0.7273  0.4538
 2611WAT     H2 8353   4.914   2.827   4.780 -0.8768  0.3595 -1.8421
 2612WAT      O 8354   4.183   6.072   1.575 -0.0634  0.0454  0.3706
 2612WAT     H1 8355   4.151   6.144   1.520 -0.6796 -0.8936 -0.5264
 2612WAT     H2 8356   4.187   5.997   1.517  1.9852 -0.3367  0.9285
 2613WAT      O 8357   6.762   3.003   5.248 -0.0171 -0.1630 -0.0385
 2613WAT     H1 8358   6.847   2.979   5.285  0.2828 -1.5546 -1.5091
 2613WAT     H2 8359   6.719   3.054   5.317  0.9441 -1.6702  1.7694
 2614WAT      O 8360   4.571   2.711   1.360 -0.2963  0.0025 -0.8835
 2614WAT     H1 8361   4.498   2.652   1.345 -1.1188  0.4795  0.9028
 2614WAT     H2 8362   4.540   2.796   1.328  0.0838 -0.0979 -1.5352
 2615WAT      O 8363   4.409   0.019   5.584 -0.4531 -0.0221  0.0148
 2615WAT     H1 8364   4.413  -0.032   5.665 -2.1724 -0.1517  0.0656
 2615WAT     H2 8365   4.362  -0.037   5.523  1.2929 -0.1436 -1.2957
 2616WAT      O 8366   3.554   3.870   4.862  0.1941 -0.3075 -0.5871
 2616WAT     H1 8367   3.496   3.803   4.826 -0.8452 -1.0963  2.2779
 2616WAT     H2 8368   3.562   3.935   4.792  0.6399 -2.9806 -3.1982
 2617WAT      O 8369   3.057   0.312   0.458  0.1560  0.2536 -0.0826
 2617WAT     H1 8370   3.083   0.289   0.547 -1.3577  1.7408  0.8076
 2617WAT     H2 8371   3.140   0.317   0.410  0.9140 -1.8012  0.8775
 2618WAT      O 8372   4.792   4.633   5.942 -0.1213  0.0719  0.0916
 2618WAT     H1 8373   4.738   4.557   5.965  1.3764 -0.9573  0.3179
 2618WAT     H2 8374   4.753   4.705   5.992 -1.5245 -0.5383 -0.0701
 2619WAT      O 8375   6.239   3.525   5.617 -0.3035 -0.0535  0.5157
 2619WAT     H1 8376   6.156   3.573   5.624 -0.7414 -0.9463  1.8707
 2619WAT     H2 8377   6.251   3.513   5.523 -0.1104  2.7400  0.0975
 2620WAT      O 8378   4.244   5.706   1.946  0.1939 -0.2815  0.0811
 2620WAT     H1 8379   4.244   5.728   1.853  0.8920  3.5971  0.8302
 2620WAT     H2 8380   4.153   5.682   1.965 -0.1797 -0.1572 -1.4121
 2621WAT      O 8381   4.643   5.288   1.385  0.1389 -0.5730 -0.5578
 2621WAT     H1 8382   4.618   5.198   1.405  0.4569 -0.6911 -0.6731
 2621WAT     H2 8383   4.739   5.287   1.390  0.0895  0.1219  0.9829
 2622WAT      O 8384   3.334   1.216   4.648  0.1246 -0.0520 -0.1684
 2622WAT     H1 8385   3.425   1.247   4.658  0.3994 -0.4929 -1.1933
 2622WAT     H2 8386   3.294   1.233   4.733  1.1723  0.1428  0.3068
 2623WAT      O 8387   4.828   2.567   2.250 -0.0953 -0.1253  0.9078
 2623WAT     H1 8388   4.786   2.512   2.184  0.8327 -0.4514  0.5762
 2623WAT     H2 8389   4.795   2.655   2.232  0.3745 -0.1637 -0.1886
 2624WAT      O 8390   5.228   4.605   4.902  0.3778 -0.4177  0.1861
 2624WAT     H1 8391   5.296   4.649   4.849 -0.9016  1.8473  0.3004
 2624WAT     H2 8392   5.170   4.565   4.837 -0.9575  2.0051 -0.2453
 2625WAT      O 8393   5.361   2.294   5.889 -0.0258 -0.4636  0.9133
 2625WAT     H1 8394   5.393   2.218   5.840  0.7619  0.7009 -0.4291
 2625WAT     H2 8395   5.324   2.256   5.969  1.9103 -2.1291  1.1115
 2626WAT      O 8396   3.977   4.096   5.457  0.2470 -0.2221  0.6420
 2626WAT     H1 8397   3.947   4.010   5.427  0.7888 -0.4378  0.7020
 2626WAT     H2 8398   4.036   4.126   5.388 -0.8811  0.6601  0.0265
 2627WAT      O 8399   6.127   2.528   5.828  0.0741  0.0741  0.0030
 2627WAT     H1 8400   6.098   2.445   5.790  0.2202  0.5523 -1.1983
 2627WAT     H2 8401   6.049   2.565   5.868 -0.5637  0.4357 -1.4993
 2628WAT      O 8402   4.781   4.545   4.343  0.2219  0.0161 -0.2803
 2628WAT     H1 8403   4.713   4.478   4.337  0.7647 -0.5451 -0.1799
 2628WAT     H2 8404   4.747   4.618   4.290 -0.3942 -0.3106 -0.3431
 2629WAT      O 8405   5.113   2.521   0.179 -0.0071 -0.6126  0.3185
 2629WAT     H1 8406   5.164   2.484   0.251  0.7592  2.7376  1.6997
 2629WAT     H2 8407   5.024   2.526   0.214  0.3290  0.8428  1.0286
 2630WAT      O 8408   4.275   2.241   0.363 -0.2076 -0.5650 -0.6187
 2630WAT     H1 8409   4.280   2.337   0.360 -1.4986 -0.4730 -0.3082
 2630WAT     H2 8410   4.183   2.222   0.377  0.2533 -1.8125  1.1875
 2631WAT      O 8411   3.664   4.742   0.151  0.4806  0.4955  0.0096
 2631WAT     H1 8412   3.629   4.679   0.088  1.5162  1.8165 -2.0225
 2631WAT     H2 8413   3.748   4.704   0.179 -0.2430 -0.3624  1.0836
 2632WAT      O 8414   4.505   0.682   5.891  0.2452  0.2125  0.2582
 2632WAT     H1 8415   4.475   0.668   5.981 -2.0330  1.5493 -0.2141
 2632WAT     H2 8416   4.499   0.596   5.851 -1.0855  0.0320  0.7728
 2633WAT      O 8417   6.542   4.486   4.380  0.0973  0.1668  0.3766
 2633WAT     H1 8418   6.529   4.564   4.433 -0.7558  0.1742  0.1751
 2633WAT     H2 8419   6.454   4.463   4.349  0.5620  0.0934 -0.9365
 2634WAT      O 8420   6.596   3.103   0.976  0.1316 -0.3152  0.5291
 2634WAT     H1 8421   6.596   3.196   0.952 -0.2976 -0.2055  0.9320
 2634WAT     H2 8422   6.547   3.060   0.906 -0.8281 -0.0431  1.0215
 2635WAT      O 8423   4.624   4.164   4.446 -0.0648  0.0877 -0.3855
 2635WAT     H1 8424   4.593   4.118   4.524  2.9631  0.0974  0.9528
 2635WAT     H2 8425   4.609   4.102   4.374 -1.5176 -0.5252  0.3983
 2636WAT      O 8426   4.430   2.627   4.486  0.3014 -0.1513  0.4562
 2636WAT     H1 8427   4.510   2.627   4.432  0.1745  0.5452  0.2612
 2636WAT     H2 8428   4.365   2.672   4.432 -0.6819 -2.0515 -0.0301
 2637WAT      O 8429   4.664   2.262   4.644  0.1475 -0.2805 -0.2180
 2637WAT     H1 8430   4.628   2.209   4.715 -0.5154  1.1158  0.5218
 2637WAT     H2 8431   4.630   2.350   4.659  0.1523  0.1117 -2.1530
 2638WAT      O 8432   5.718   2.285   5.228  0.1545  0.1781  0.1311
 2638WAT     H1 8433   5.683   2.321   5.310 -0.7369 -0.9917  0.2934
 2638WAT     H2 8434   5.707   2.191   5.237 -1.3245  0.0853 -1.9220
 2639WAT      O 8435   6.562   2.648   4.002  0.0116  0.0887  0.0667
 2639WAT     H1 8436   6.572   2.723   4.061 -1.6341  0.6264 -0.2638
 2639WAT     H2 8437   6.577   2.571   4.057 -2.1616  0.5366  1.4327
 2640WAT      O 8438   5.984   5.329   3.827  0.1565 -0.4454  0.1351
 2640WAT     H1 8439   5.957   5.254   3.880  1.7263 -0.5439  0.8347
 2640WAT     H2 8440   5.930   5.322   3.748  0.7588 -2.7540 -0.1564
 2641WAT      O 8441   3.492   3.134   4.914  0.1383  0.1807  0.2364
 2641WAT     H1 8442   3.426   3.066   4.929 -0.4479  0.7410  0.2764
 2641WAT     H2 8443   3.530   3.149   5.000  2.5196 -2.2798 -0.2552
 2642WAT      O 8444   3.488   2.499   5.796 -0.3596  0.0330  0.1605
 2642WAT     H1 8445   3.423   2.444   5.840  0.1108 -0.0826  0.7151
 2642WAT     H2 8446   3.572   2.461   5.820 -0.0981 -0.2561 -1.1381
 2643WAT      O 8447   5.190   3.333   1.304  0.2238 -0.0404  0.2616
 2643WAT     H1 8448   5.266   3.374   1.345  0.7177 -0.4529 -0.2311
 2643WAT     H2 8449   5.165   3.394   1.234 -0.0407  0.2012  0.5612
 2644WAT      O 8450   5.131   5.351   0.529  0.0045 -0.3663  0.1154
 2644WAT     H1 8451   5.066   5.411   0.491  1.3612  0.4801 -0.9577
 2644WAT     H2 8452   5.162   5.299   0.455  2.7145  1.3223 -0.0624
 2645WAT      O 8453   3.386   2.481   5.342 -0.8819  0.6747  0.4059
 2645WAT     H1 8454   3.311   2.433   5.377 -0.7548  0.2845  0.1516
 2645WAT     H2 8455   3.364   2.573   5.355 -0.4665  0.5502  2.3112
 2646WAT      O 8456   6.019   2.862   0.836 -0.4771  0.1569 -0.0433
 2646WAT     H1 8457   5.960   2.922   0.882 -2.1856 -0.9776 -0.6677
 2646WAT     H2 8458   6.095   2.917   0.813 -1.2316  1.6510  0.8253
 2647WAT      O 8459   4.486   1.677   0.439  0.4346 -0.3905  0.7612
 2647WAT     H1 8460   4.396   1.671   0.469  0.5130  0.4737  1.2188
 2647WAT     H2 8461   4.480   1.681   0.344  0.1272 -2.2469  0.6657
 2648WAT      O 8462   4.060   2.536   0.065  0.0451 -0.7257 -0.2872
 2648WAT     H1 8463   4.128   2.587   0.022 -1.1863  0.1087 -1.3107
 2648WAT     H2 8464   4.095   2.520   0.153  0.1183  2.7001  0.4521
 2649WAT      O 8465   4.401   3.159   5.860  0.0312  0.0422  0.8584
 2649WAT     H1 8466   4.306   3.155   5.853  0.1188  0.1215 -0.6017
 2649WAT     H2 8467   4.417   3.176   5.953 -1.4349  2.1348  0.8043
 2650WAT      O 8468   3.367   2.113   5.219 -0.1468  0.0243  0.3379
 2650WAT     H1 8469   3.459   2.092   5.232 -0.3079  0.3267  2.3404
 2650WAT     H2 8470   3.324   2.086   5.301 -2.0591 -1.2140 -0.9988
 2651WAT      O 8471   5.777   3.326   1.269 -0.2647  0.7831  0.2696
 2651WAT     H1 8472   5.850   3.341   1.209 -0.3772  1.0517  0.1980
 2651WAT     H2 8473   5.719   3.267   1.221 -1.1108  2.1998 -0.5302
 2652WAT      O 8474   2.944   3.674   4.648 -0.1262 -0.3147 -0.0454
 2652WAT     H1 8475   2.980   3.698   4.562 -1.5030 -0.5519 -0.7096
 2652WAT     H2 8476   2.877   3.609   4.629  0.5157 -1.4414  1.3582
 2653WAT      O 8477   3.774   1.553   0.321  0.3648  0.2509  0.3629
 2653WAT     H1 8478   3.684   1.539   0.292  0.4427  0.5527 -0.0226
 2653WAT     H2 8479   3.802   1.632   0.275  1.2653 -0.5696 -0.5066
 2654WAT      O 8480   1.827   1.245   1.259 -0.1527  0.0503 -1.1517
 2654WAT     H1 8481   1.766   1.281   1.324  0.0151 -0.4004 -0.7385
 2654WAT     H2 8482   1.826   1.309   1.188 -0.6064  0.3781 -0.8606
 2655WAT      O 8483   6.460   3.662   4.650  0.2095 -0.4298 -0.0686
 2655WAT     H1 8484   6.439   3.734   4.709  2.0433 -0.4965  0.7278
 2655WAT     H2 8485   6.382   3.652   4.596 -1.2585  0.1383  1.8348
 2656WAT      O 8486   2.865   2.623   0.166 -0.4748  0.6686 -0.0083
 2656WAT     H1 8487   2.937   2.621   0.229  0.1409  1.8662 -0.6305
 2656WAT     H2 8488   2.885   2.553   0.104  1.2597  2.1904 -1.2862
 2657WAT      O 8489   3.063   5.735   0.475  0.2623  0.5301  0.0893
 2657WAT     H1 8490   2.971   5.752   0.498 -0.0865 -1.3760  0.3004
 2657WAT     H2 8491   3.069   5.759   0.383 -1.0733 -1.2649 -0.5396
 2658WAT      O 8492   3.648   2.811   4.960  0.2703 -0.4390 -0.2355
 2658WAT     H1 8493   3.649   2.735   4.902  1.6462  0.1658 -1.0627
 2658WAT     H2 8494   3.556   2.834   4.969 -0.4501 -3.6415  2.0392
 2659WAT      O 8495   3.405   2.999   1.128 -0.6504  0.1292  0.1601
 2659WAT     H1 8496   3.477   3.001   1.066 -1.2272  0.2106 -0.5254
 2659WAT     H2 8497   3.382   2.906   1.136  1.1243 -0.2230  2.3173
 2660WAT      O 8498   6.317   2.087   1.313 -0.0575  0.1908 -0.2878
 2660WAT     H1 8499   6.247   2.150   1.331 -0.7921 -1.2616  2.5198
 2660WAT     H2 8500   6.272   2.013   1.271  0.5404  0.8177 -2.1317
 2661WAT      O 8501   6.467   2.243   5.936 -0.4266 -0.5451 -0.0210
 2661WAT     H1 8502   6.421   2.290   5.867 -0.2268 -1.9056 -1.1192
 2661WAT     H2 8503   6.523   2.181   5.890  1.7954  0.3428  1.2826
 2662WAT      O 8504   4.752   3.301   0.592  0.4302 -0.1628  0.0675
 2662WAT     H1 8505   4.797   3.256   0.521 -0.8533 -0.7870 -0.3845
 2662WAT     H2 8506   4.696   3.365   0.548  0.4306  0.2056  0.5850
 2663WAT      O 8507   5.749   1.717   1.383 -0.5368 -0.0187 -0.4020
 2663WAT     H1 8508   5.764   1.661   1.459 -2.8062  0.4480  0.4946
 2663WAT     H2 8509   5.679   1.672   1.334 -0.4057  0.6260 -1.2083
 2664WAT      O 8510   3.800   4.438   5.673  0.1800  0.2344  0.4604
 2664WAT     H1 8511   3.799   4.407   5.763 -0.5602  2.1495  1.1536
 2664WAT     H2 8512   3.775   4.361   5.621 -1.2506 -0.4163  2.0425
 2665WAT      O 8513   5.561   2.837   2.576  0.3976  0.0153 -0.6961
 2665WAT     H1 8514   5.500   2.851   2.503 -0.7880  1.2486  0.4607
 2665WAT     H2 8515   5.507   2.796   2.644  0.7208  1.4642  0.4891
 2666WAT      O 8516   4.818   2.221   0.614 -0.1828 -0.2533  0.1174
 2666WAT     H1 8517   4.765   2.244   0.537 -0.7745 -0.2322  0.5228
 2666WAT     H2 8518   4.869   2.300   0.632  0.8080 -0.6354 -0.9279
 2667WAT      O 8519   3.727   1.917   0.249 -0.2460 -0.4959  0.2701
 2667WAT     H1 8520   3.799   1.974   0.221 -1.1457  0.4326 -0.1997
 2667WAT     H2 8521   3.747   1.832   0.208  1.1728 -0.5972  1.0817
 2668WAT      O 8522   3.195   3.511   0.326 -0.1882  0.3757 -0.9525
 2668WAT     H1 8523   3.103   3.519   0.304 -0.2546 -0.9446 -1.2468
 2668WAT     H2 8524   3.228   3.443   0.267  1.1747  1.4079 -1.4420
 2669WAT      O 8525   4.273   2.037   5.750 -0.8817  0.2000 -0.1700
 2669WAT     H1 8526   4.275   2.118   5.698 -0.2906  1.7281  2.0663
 2669WAT     H2 8527   4.352   1.990   5.724 -0.5394  0.9782 -0.5746
 2670WAT      O 8528   5.689   0.989   2.143  0.5764 -0.1773 -0.1501
 2670WAT     H1 8529   5.701   0.975   2.049  0.4097 -0.1574 -0.1747
 2670WAT     H2 8530   5.715   1.080   2.157  1.0075 -0.3080 -0.1052
 2671WAT      O 8531   4.327   2.901   0.731  0.2686 -0.3419 -0.6828
 2671WAT     H1 8532   4.392   2.911   0.801 -0.2425 -0.1620 -0.2238
 2671WAT     H2 8533   4.253   2.857   0.774  0.2275 -0.8705 -1.2865
 2672WAT      O 8534   6.641   1.861   4.747 -0.5108 -0.1343 -0.0297
 2672WAT     H1 8535   6.584   1.915   4.801  1.8815  1.7227  0.8447
 2672WAT     H2 8536   6.726   1.865   4.791  1.1376  0.0353 -2.9832
 2673WAT      O 8537   4.962   3.191   0.235 -0.1455 -0.2093  0.0692
 2673WAT     H1 8538   4.987   3.282   0.252  2.0549 -0.7483  0.0644
 2673WAT     H2 8539   5.022   3.163   0.166 -1.6119 -1.3275 -0.7983
 2674WAT      O 8540   3.493   3.101   0.016 -0.4824 -0.1563  0.0382
 2674WAT     H1 8541   3.457   3.051   0.089  0.4428  0.0050  0.6219
 2674WAT     H2 8542   3.559   3.044  -0.022  0.6842  0.6528  0.7977
 2675WAT      O 8543   7.016   2.222   5.183  0.4572  0.1656 -0.1717
 2675WAT     H1 8544   6.986   2.132   5.174  0.4815  0.1290  0.1033
 2675WAT     H2 8545   7.010   2.258   5.094 -1.0938  0.3779 -0.0234
 2676WAT      O 8546   4.077   3.031   5.569 -0.4776  0.2434  0.1577
 2676WAT     H1 8547   4.044   3.074   5.490  1.8934  0.7215 -0.6569
 2676WAT     H2 8548   4.170   3.054   5.571  0.0952 -1.9508  1.6666
 2677WAT      O 8549   4.130   3.321   0.537 -0.2074  0.0821  0.1763
 2677WAT     H1 8550   4.036   3.301   0.536 -0.1235 -0.3139 -1.0846
 2677WAT     H2 8551   4.172   3.238   0.515  0.2597  1.0082 -2.8790
 2678WAT      O 8552   6.121   0.352   1.881  0.1665  0.6841 -0.4819
 2678WAT     H1 8553   6.151   0.291   1.813 -1.4389 -0.0710 -0.5844
 2678WAT     H2 8554   6.063   0.298   1.936  2.9963  0.7000  2.8113
 2679WAT      O 8555   4.390   4.870   5.421 -0.7243  0.3363 -0.0976
 2679WAT     H1 8556   4.383   4.790   5.369 -0.5948  0.4810 -0.3388
 2679WAT     H2 8557   4.308   4.917   5.404 -1.4082 -0.3697  1.1022
 2680WAT      O 8558   5.253   2.589   5.171  0.7979  0.0109  0.1174
 2680WAT     H1 8559   5.277   2.547   5.089 -2.0763  0.4246 -1.0473
 2680WAT     H2 8560   5.272   2.524   5.238 -1.1928 -2.2854 -1.3824
 2681WAT      O 8561   0.239   2.979   5.165 -0.0252  0.0891 -0.2036
 2681WAT     H1 8562   0.238   2.917   5.237  0.6390 -1.0455 -1.1510
 2681WAT     H2 8563   0.179   3.049   5.193 -0.2059 -0.6008  1.1884
 2682WAT      O 8564   5.297   4.360   3.374 -0.0733  0.2920  0.1856
 2682WAT     H1 8565   5.252   4.397   3.298  0.0382 -0.6707 -0.3738
 2682WAT     H2 8566   5.375   4.319   3.337 -1.3275 -2.5140  0.3990
 2683WAT      O 8567   5.169   0.423   3.663 -0.3310 -0.0447 -0.6415
 2683WAT     H1 8568   5.196   0.505   3.620  2.0774 -0.1438  0.4932
 2683WAT     H2 8569   5.114   0.452   3.736  1.2070  0.7088  0.2842
 2684WAT      O 8570   3.909   3.726   0.523  0.0122 -0.0994 -0.2869
 2684WAT     H1 8571   3.987   3.723   0.578 -0.3498 -1.4684  0.1934
 2684WAT     H2 8572   3.909   3.643   0.476 -1.1690 -0.1323 -0.2619
 2685WAT      O 8573   3.033   3.342   1.191 -0.0437  0.4539  0.0485
 2685WAT     H1 8574   3.126   3.321   1.184 -0.4797 -1.2985 -1.1009
 2685WAT     H2 8575   3.001   3.288   1.263 -0.5514 -0.5413 -0.8903
 2686WAT      O 8576   3.349   1.570   3.544  0.4322 -0.3176 -0.9542
 2686WAT     H1 8577   3.344   1.660   3.513  1.2920 -0.2984 -1.0784
 2686WAT     H2 8578   3.298   1.520   3.481  0.7116 -0.0350 -1.4104
 2687WAT      O 8579   6.545   1.403   4.128  0.3225  0.4678 -0.0477
 2687WAT     H1 8580   6.558   1.452   4.047 -1.3228  0.0145 -0.6305
 2687WAT     H2 8581   6.501   1.322   4.101  0.3053  0.0126  1.2288
 2688WAT      O 8582   3.326   3.628   3.958 -0.0409 -0.1736 -0.9263
 2688WAT     H1 8583   3.269   3.574   4.012  0.8937 -1.0530 -0.7982
 2688WAT     H2 8584   3.334   3.580   3.876  0.6158 -0.1225 -0.8968
 2689WAT      O 8585   4.335   2.121   4.677  0.4170  0.2438  0.7259
 2689WAT     H1 8586   4.380   2.203   4.654  0.9019 -0.1462  0.2542
 2689WAT     H2 8587   4.287   2.142   4.757  1.7082  0.5930  1.4492
 2690WAT      O 8588   2.533   4.851   5.136 -0.5821 -0.4806 -0.2831
 2690WAT     H1 8589   2.557   4.933   5.180 -2.9583 -1.1428  2.5372
 2690WAT     H2 8590   2.607   4.833   5.078  2.2931  1.1711  2.5160
 2691WAT      O 8591   4.059   1.828   5.151  0.7107 -0.0650  0.2465
 2691WAT     H1 8592   4.094   1.739   5.148  0.6663 -0.0851  0.3305
 2691WAT     H2 8593   3.988   1.827   5.087  0.6298 -0.1248  0.3372
 2692WAT      O 8594   5.448   1.573   4.289  0.1397 -0.6995  0.8603
 2692WAT     H1 8595   5.465   1.515   4.215 -1.4003 -0.1921  0.0668
 2692WAT     H2 8596   5.532   1.614   4.308  0.5321 -0.7279 -0.7224
 2693WAT      O 8597   4.258   0.090   1.235 -0.0031  0.2902 -0.6476
 2693WAT     H1 8598   4.186   0.079   1.297  0.7190  0.7998  0.3093
 2693WAT     H2 8599   4.220   0.142   1.163 -0.1023  2.2973  0.7801
 2694WAT      O 8600   5.061   0.148   4.044  0.3151 -0.3684 -0.0830
 2694WAT     H1 8601   4.969   0.124   4.037  0.2282  0.0879 -0.5877
 2694WAT     H2 8602   5.092   0.150   3.954  0.6801  0.0182  0.0475
 2695WAT      O 8603   3.787   2.604   0.041 -0.0087 -0.1007 -0.2643
 2695WAT     H1 8604   3.742   2.527   0.076  0.5459 -0.1568  0.3471
 2695WAT     H2 8605   3.880   2.581   0.044  0.2372  0.9224  0.7872
 2696WAT      O 8606   3.025   3.962   5.109 -0.2275  0.9718 -0.1407
 2696WAT     H1 8607   2.936   3.975   5.141 -0.2147 -0.2998  0.5038
 2696WAT     H2 8608   3.080   3.972   5.187  0.1189  1.0592 -0.3965
 2697WAT      O 8609   5.672   4.297   4.473 -0.0667 -0.1945 -0.6490
 2697WAT     H1 8610   5.742   4.351   4.510 -0.9950  0.2956  0.4677
 2697WAT     H2 8611   5.685   4.210   4.511 -0.1085 -0.0820 -0.3764
 2698WAT      O 8612   4.060   2.510   4.262  0.0659 -0.0630  0.4996
 2698WAT     H1 8613   3.983   2.454   4.265 -0.3470  0.5115  0.7847
 2698WAT     H2 8614   4.045   2.567   4.186  1.0237 -1.0855 -0.5047
 2699WAT      O 8615   3.359   2.978   0.232  0.0353  0.1654 -0.1967
 2699WAT     H1 8616   3.426   2.911   0.218 -0.7333 -0.5150 -0.6826
 2699WAT     H2 8617   3.328   2.963   0.321 -0.5379 -0.4982 -0.5037
 2700WAT      O 8618   0.091   2.862   3.729 -0.0499  0.2173 -0.2261
 2700WAT     H1 8619   0.091   2.770   3.753 -1.4253  0.1166 -0.5108
 2700WAT     H2 8620   0.079   2.862   3.634 -0.8577  0.6770 -0.1374
 2701WAT      O 8621   4.994   1.801   5.841 -0.4088  0.3573 -0.2293
 2701WAT     H1 8622   4.902   1.805   5.868 -0.2237 -0.3617  0.5311
 2701WAT     H2 8623   5.044   1.808   5.922  0.1417 -2.0061 -0.3054
 2702WAT      O 8624   3.767   3.532   5.077 -0.6050  0.1004 -0.2220
 2702WAT     H1 8625   3.776   3.497   4.989  1.6401  0.2346 -0.0914
 2702WAT     H2 8626   3.734   3.621   5.065 -0.1199  0.1859 -0.9372
 2703WAT      O 8627   5.326   3.495   5.913 -0.0403 -1.0167 -0.1303
 2703WAT     H1 8628   5.290   3.556   5.977  3.1676 -0.7869  1.6358
 2703WAT     H2 8629   5.343   3.550   5.836  1.1683 -0.0056  0.8124
 2704WAT      O 8630   5.333   3.747   5.196  0.0603 -0.0051 -0.1634
 2704WAT     H1 8631   5.245   3.772   5.225 -0.9556 -1.6986 -1.5868
 2704WAT     H2 8632   5.331   3.651   5.192  1.6704 -0.0367 -1.1143
 2705WAT      O 8633   3.605   1.259   5.400  0.2622 -0.1348  0.0597
 2705WAT     H1 8634   3.625   1.236   5.309  0.7514  0.9701 -0.1350
 2705WAT     H2 8635   3.687   1.243   5.448 -0.0154 -0.7813  0.3260
 2706WAT      O 8636   5.267   2.256   0.127 -0.4178 -0.0225  0.1589
 2706WAT     H1 8637   5.278   2.251   0.222 -0.9530 -0.2986  0.2120
 2706WAT     H2 8638   5.174   2.237   0.112 -0.5546  0.9835 -0.3532
 2707WAT      O 8639   4.630   2.727   1.006 -0.4242  0.5146  0.3746
 2707WAT     H1 8640   4.646   2.636   1.032 -1.2301  0.6881  1.5455
 2707WAT     H2 8641   4.700   2.777   1.046 -0.2225  0.4650  0.0851
 2708WAT      O 8642   4.532   2.004   0.987 -0.3299 -0.3253 -0.1647
 2708WAT     H1 8643   4.595   2.060   1.034  1.0049 -1.3571 -0.6574
 2708WAT     H2 8644   4.512   2.053   0.908  1.0125 -0.6021 -0.7089
 2709WAT      O 8645   5.263   2.835   5.302 -0.1363 -0.3441  0.3802
 2709WAT     H1 8646   5.253   2.743   5.277 -1.4325 -0.2322  0.3975
 2709WAT     H2 8647   5.264   2.834   5.397  3.5034 -0.6452  0.4552
 2710WAT      O 8648   5.655   1.771   4.309  0.2247 -0.0936 -0.1446
 2710WAT     H1 8649   5.575   1.821   4.293 -0.1740 -0.0845  1.6693
 2710WAT     H2 8650   5.703   1.776   4.226 -1.7327 -0.3019 -1.3612
 2711WAT      O 8651   4.854   0.720   0.161 -0.2535 -0.3673 -0.3330
 2711WAT     H1 8652   4.821   0.653   0.221  0.1520 -0.7026 -0.4817
 2711WAT     H2 8653   4.934   0.682   0.124  0.5242  0.5863  0.3029
 2712WAT      O 8654   5.180   0.601   1.956  0.2078  0.2184  0.2111
 2712WAT     H1 8655   5.203   0.568   1.869  0.3275 -0.0252  0.3344
 2712WAT     H2 8656   5.106   0.659   1.940  1.1044  1.2655 -0.2298
 2713WAT      O 8657   6.216   0.882   3.412  0.0370 -1.0153 -0.0083
 2713WAT     H1 8658   6.290   0.928   3.452 -0.5499 -1.4569  1.6529
 2713WAT     H2 8659   6.141   0.939   3.428 -0.0413 -0.6534 -1.5286
 2714WAT      O 8660   5.178   1.158   3.997 -0.0596 -0.0770  0.1101
 2714WAT     H1 8661   5.227   1.239   4.014 -1.5634  0.9034 -0.0493
 2714WAT     H2 8662   5.134   1.139   4.079 -1.3060  0.4192 -0.4184
 2715WAT      O 8663   4.508   5.081   4.668 -0.2147 -0.3148 -0.0871
 2715WAT     H1 8664   4.423   5.123   4.670  0.7108  1.7612 -1.2011
 2715WAT     H2 8665   4.496   5.005   4.611 -1.3965 -0.2588  0.0761
 2716WAT      O 8666   5.139   3.623   1.131  0.4270 -0.6720 -0.4116
 2716WAT     H1 8667   5.215   3.565   1.138 -0.6325 -1.9500  1.7948
 2716WAT     H2 8668   5.124   3.632   1.037  2.2168 -1.8484 -0.8594
 2717WAT      O 8669   5.305   2.021   3.415  0.0366  0.2133 -0.3030
 2717WAT     H1 8670   5.301   1.942   3.469  0.1874  0.4426  0.0419
 2717WAT     H2 8671   5.220   2.023   3.370  0.2622 -0.4779 -0.7847
 2718WAT      O 8672   4.738   3.400   4.381  0.2737  0.1756  0.2463
 2718WAT     H1 8673   4.669   3.338   4.359  2.3832 -2.2565  0.0232
 2718WAT     H2 8674   4.705   3.446   4.459 -1.3300 -1.3082  0.4999
 2719WAT      O 8675   1.799   0.423   4.035 -0.3929 -0.1013  0.9013
 2719WAT     H1 8676   1.876   0.479   4.026 -1.0414  0.8861  1.2241
 2719WAT     H2 8677   1.726   0.480   4.010 -0.9326 -1.3161 -0.3723
 2720WAT      O 8678   3.820   3.362   0.008  0.0239 -0.5440 -0.3718
 2720WAT     H1 8679   3.903   3.386  -0.033  0.9139 -1.4485  0.8249
 2720WAT     H2 8680   3.788   3.444   0.047  0.6793 -0.3247 -0.2821
 2721WAT      O 8681   4.483   2.620   0.704 -0.7354 -0.3161 -0.1874
 2721WAT     H1 8682   4.444   2.538   0.671 -0.8423 -0.7951  1.0820
 2721WAT     H2 8683   4.507   2.600   0.794 -0.9066  1.1137  0.1886
 2722WAT      O 8684   2.128   1.173   4.696  0.5720  0.0114  0.2012
 2722WAT     H1 8685   2.210   1.145   4.737 -0.1498 -1.6605  0.5817
 2722WAT     H2 8686   2.152   1.193   4.606  1.3211 -0.9332  0.1714
 2723WAT      O 8687   4.072   5.087   2.728 -0.0674 -0.2536  0.0903
 2723WAT     H1 8688   4.062   5.017   2.793 -0.3519 -0.8564 -0.5810
 2723WAT     H2 8689   3.988   5.132   2.728  0.1607  0.1887  0.6203
 2724WAT      O 8690   3.623   3.206   0.518  0.0804 -0.9210 -0.1912
 2724WAT     H1 8691   3.534   3.183   0.545 -0.2527 -2.3546 -2.2872
 2724WAT     H2 8692   3.612   3.262   0.442  1.0087  2.4100  1.9241
 2725WAT      O 8693   1.482   1.188   1.209 -0.4808  0.1623  0.0752
 2725WAT     H1 8694   1.554   1.251   1.216  0.1520 -0.7316  2.8086
 2725WAT     H2 8695   1.521   1.111   1.167  0.0802 -0.1422  1.1165
 2726WAT      O 8696   0.157   2.738   5.589  0.0793  0.1171 -0.4229
 2726WAT     H1 8697   0.181   2.794   5.662 -1.1117 -0.2372  0.2714
 2726WAT     H2 8698   0.217   2.762   5.519  1.4801  0.2270  0.7759
 2727WAT      O 8699   4.367   3.235   1.228 -0.0992  0.2071  0.3816
 2727WAT     H1 8700   4.302   3.224   1.159 -0.5536  0.3606  0.7752
 2727WAT     H2 8701   4.322   3.287   1.295 -0.5863 -2.1263  1.9946
 2728WAT      O 8702   4.458   3.517   0.731 -0.1294  0.2921  0.2560
 2728WAT     H1 8703   4.455   3.611   0.712  0.0110  0.3458  0.4933
 2728WAT     H2 8704   4.368   3.494   0.754 -0.0581  0.4848  0.7391
 2729WAT      O 8705   5.307   2.988   3.699 -0.0821  0.2612  0.0939
 2729WAT     H1 8706   5.308   2.894   3.680  2.3195  0.1841  0.2221
 2729WAT     H2 8707   5.369   2.998   3.771 -0.2172  1.9619  0.0132
 2730WAT      O 8708   4.391   1.775   4.202  0.0093 -0.0735  0.2432
 2730WAT     H1 8709   4.450   1.847   4.227  0.1438 -0.1704  0.2091
 2730WAT     H2 8710   4.447   1.715   4.153 -0.7819  1.3788 -2.6912
 2731WAT      O 8711   4.751   3.875   4.831 -0.1346 -0.0269 -0.1797
 2731WAT     H1 8712   4.659   3.851   4.834  0.3214 -1.8163  0.8551
 2731WAT     H2 8713   4.758   3.954   4.884 -1.6177  2.4278 -3.3229
 2732WAT      O 8714   5.684   4.450   3.886 -0.3018  0.0115  0.4523
 2732WAT     H1 8715   5.660   4.375   3.832  0.6685 -0.9452  1.3218
 2732WAT     H2 8716   5.762   4.487   3.843  1.8458 -2.0711  2.2816
 2733WAT      O 8717   3.919   2.774   3.842  0.1671  0.2472  0.6681
 2733WAT     H1 8718   3.844   2.828   3.865  0.8196  0.1412  3.4039
 2733WAT     H2 8719   3.943   2.802   3.753 -2.5678  0.8155  0.0236
 2734WAT      O 8720   3.789   2.506   3.915  0.2111 -0.0556  1.0112
 2734WAT     H1 8721   3.755   2.457   3.840 -0.3407 -1.1088  1.9144
 2734WAT     H2 8722   3.836   2.580   3.877 -1.5700  0.4324 -0.3374
 2735WAT      O 8723   3.135   1.955   4.933  0.4542  0.4587  0.3758
 2735WAT     H1 8724   3.117   2.021   4.866  0.8990 -0.7129 -0.9482
 2735WAT     H2 8725   3.220   1.979   4.968  1.0496  0.1114 -0.7578
 2736WAT      O 8726   4.848   5.015   3.504  0.3589 -0.0749 -0.0580
 2736WAT     H1 8727   4.889   4.932   3.480 -0.7075 -0.2059 -1.6059
 2736WAT     H2 8728   4.758   4.993   3.526  0.0607  0.6586 -0.4869
 2737WAT      O 8729   3.582   2.188   3.929 -0.0337 -0.6245  0.2615
 2737WAT     H1 8730   3.516   2.119   3.929 -1.4552  0.6787 -0.4660
 2737WAT     H2 8731   3.544   2.258   3.876  2.0247  0.1071 -0.3395
 2738WAT      O 8732   4.698   2.196   4.357  0.6007 -0.6510  0.6490
 2738WAT     H1 8733   4.725   2.206   4.448  0.1517  0.7948  0.6531
 2738WAT     H2 8734   4.750   2.261   4.309 -1.7513  1.2495  0.4671
 2739WAT      O 8735   4.462   2.239   3.817 -0.4202 -0.7317 -0.1189
 2739WAT     H1 8736   4.558   2.238   3.818 -0.3337  0.8496 -1.9613
 2739WAT     H2 8737   4.437   2.232   3.909  1.5028  0.8699  0.5825
 2740WAT      O 8738   4.237   1.017   4.577 -0.1747 -0.6446  0.2682
 2740WAT     H1 8739   4.241   0.953   4.506 -0.9148  0.5886 -0.9181
 2740WAT     H2 8740   4.162   0.989   4.630 -0.9659 -0.3369 -0.6748
 2741WAT      O 8741   3.483   2.349   3.726 -0.7023  0.1427 -0.5841
 2741WAT     H1 8742   3.454   2.319   3.640  0.9810  2.0770 -1.9165
 2741WAT     H2 8743   3.542   2.422   3.708 -0.7075  0.9819  2.2555
 2742WAT      O 8744   2.377   2.137   4.065  0.3532 -0.6213  0.3529
 2742WAT     H1 8745   2.297   2.085   4.071 -1.1266  1.5261  0.2525
 2742WAT     H2 8746   2.372   2.197   4.139  1.4795  0.1100 -0.1300
 2743WAT      O 8747   5.818   3.732   5.825 -0.1785 -0.4707  0.4390
 2743WAT     H1 8748   5.785   3.647   5.852 -0.4396 -0.4834  0.0830
 2743WAT     H2 8749   5.843   3.775   5.907 -0.8377 -0.5600  0.6898
 2744WAT      O 8750   3.750   0.781   5.932  0.0801  0.0442 -0.5591
 2744WAT     H1 8751   3.744   0.761   6.025 -0.5543  0.3952 -0.5220
 2744WAT     H2 8752   3.841   0.809   5.919 -0.4408  2.4225  0.4399
 2745WAT      O 8753   5.727   3.491   5.909 -0.5303  0.1021 -0.2553
 2745WAT     H1 8754   5.653   3.467   5.965  0.4509 -0.6487  0.7879
 2745WAT     H2 8755   5.788   3.418   5.919  0.6321  1.0010 -0.5641
 2746WAT      O 8756   4.781   2.962   4.253 -0.5028  0.2714 -0.3148
 2746WAT     H1 8757   4.755   2.934   4.166 -1.6915  0.0277  0.1073
 2746WAT     H2 8758   4.874   2.938   4.260 -0.5198 -0.1055 -1.3379
 2747WAT      O 8759   5.504   0.852   4.474  0.1414 -0.0257 -0.8097
 2747WAT     H1 8760   5.495   0.802   4.554  2.0829  0.1922 -0.3991
 2747WAT     H2 8761   5.416   0.855   4.437 -0.7679 -0.2317  1.2333
 2748WAT      O 8762   4.288   0.689   3.880  0.2629  0.3387  0.6817
 2748WAT     H1 8763   4.345   0.671   3.954  1.0750 -1.5542 -0.3273
 2748WAT     H2 8764   4.290   0.609   3.828 -0.6230  1.4255 -1.1532
 2749WAT      O 8765   4.033   2.692   4.078  0.0978  0.4358  0.4164
 2749WAT     H1 8766   4.053   2.776   4.119 -0.9575  0.4539  0.9255
 2749WAT     H2 8767   3.975   2.714   4.005  0.2949  0.2064  0.1906
 2750WAT      O 8768   3.667   2.824   3.635 -0.4125 -0.0565 -0.1573
 2750WAT     H1 8769   3.646   2.835   3.542 -4.6451  0.2274  0.6248
 2750WAT     H2 8770   3.678   2.729   3.646 -1.8710 -0.3124 -0.6852
 2751WAT      O 8771   4.206   4.150   4.789  0.1419  0.5071 -0.1038
 2751WAT     H1 8772   4.239   4.075   4.839 -3.1106 -2.2297 -1.6496
 2751WAT     H2 8773   4.205   4.222   4.853  1.9473 -1.1290  1.9385
 2752WAT      O 8774   4.751   2.941   4.532 -0.2896  0.1572 -0.0526
 2752WAT     H1 8775   4.787   2.858   4.565  0.4838  0.7509  0.6600
 2752WAT     H2 8776   4.754   2.932   4.437  0.7153 -0.2617 -0.0033
 2753WAT      O 8777   5.802   0.294   1.773  0.0930  0.0769  0.6854
 2753WAT     H1 8778   5.893   0.284   1.800  0.0899 -1.7821  0.1132
 2753WAT     H2 8779   5.780   0.384   1.798  1.6626  0.1355  2.0252
 2754WAT      O 8780   6.820   4.294   3.575 -0.0257 -0.2703  0.5097
 2754WAT     H1 8781   6.833   4.203   3.602  0.6622 -0.3588 -0.1089
 2754WAT     H2 8782   6.742   4.291   3.520 -0.9943 -0.2076  1.8136
 2755WAT      O 8783   4.711   3.855   4.525  0.3283 -0.4761 -0.1991
 2755WAT     H1 8784   4.714   3.781   4.585  0.4957 -2.2452 -2.2931
 2755WAT     H2 8785   4.631   3.841   4.473 -0.2488  1.4336  0.0834
 2756WAT      O 8786   3.707   3.598   4.629  0.1258  0.1242  0.1965
 2756WAT     H1 8787   3.716   3.542   4.706  0.5622 -0.0054  0.0484
 2756WAT     H2 8788   3.619   3.578   4.595  0.2116 -0.3388  0.2430
 2757WAT      O 8789   3.235   2.387   5.559  0.5675 -0.1077  0.0053
 2757WAT     H1 8790   3.300   2.442   5.603  1.1389 -0.3980 -0.4749
 2757WAT     H2 8791   3.224   2.312   5.618 -0.7223  0.8222  1.0036
 2758WAT      O 8792   6.449   2.966   2.663  1.1537 -0.1444 -0.1907
 2758WAT     H1 8793   6.379   3.018   2.624  1.6234 -0.2294 -1.1510
 2758WAT     H2 8794   6.403   2.897   2.710  0.4289  1.9066  2.3803
 2759WAT      O 8795   5.300   3.368   3.956  0.7788 -0.2929  0.3937
 2759WAT     H1 8796   5.340   3.329   4.034 -1.2520  1.0894  2.2328
 2759WAT     H2 8797   5.316   3.462   3.965 -0.5605  0.0145 -0.1665
 2760WAT      O 8798   4.575   5.275   5.133  0.1041 -0.1289 -0.2891
 2760WAT     H1 8799   4.630   5.351   5.153 -0.6934  0.4000 -0.0757
 2760WAT     H2 8800   4.596   5.254   5.042  0.9487 -0.1908 -0.0959
 2761WAT      O 8801   4.938   1.956   4.780  0.0324  0.4874 -0.3880
 2761WAT     H1 8802   5.022   1.937   4.738  0.5424  0.7343  0.4833
 2761WAT     H2 8803   4.873   1.945   4.710  0.7535 -0.0072 -1.0014
 2762WAT      O 8804   5.452   1.798   3.223  0.6062 -0.5122  0.2388
 2762WAT     H1 8805   5.400   1.864   3.269  1.0909  0.4418 -0.5380
 2762WAT     H2 8806   5.409   1.715   3.244  1.4084 -0.3061  3.2919
 2763WAT      O 8807   2.137   1.641   2.697 -0.2089  0.0538 -0.0391
 2763WAT     H1 8808   2.093   1.721   2.668  0.5711 -0.1548 -2.0078
 2763WAT     H2 8809   2.218   1.672   2.736 -0.6936  0.2924  0.7955
 2764WAT      O 8810   6.316   3.862   5.404 -0.2389 -0.3186  0.0753
 2764WAT     H1 8811   6.383   3.929   5.393  0.0979 -0.9566 -2.3824
 2764WAT     H2 8812   6.233   3.910   5.401  0.0285  0.3322  1.9174
 2765WAT      O 8813   3.693   3.713   4.396 -0.2616 -0.0439  0.3308
 2765WAT     H1 8814   3.715   3.670   4.478 -0.8131  0.1382  0.5789
 2765WAT     H2 8815   3.709   3.646   4.329 -0.6008 -0.4597  0.6621
 2766WAT      O 8816   4.660   3.974   5.564 -0.2548  0.1045 -0.2042
 2766WAT     H1 8817   4.743   3.926   5.555 -0.2125  0.0305  0.5044
 2766WAT     H2 8818   4.682   4.064   5.539 -0.0033  0.0421 -0.2110
 2767WAT      O 8819   3.050   1.680   5.014 -0.1481 -0.1363 -0.0975
 2767WAT     H1 8820   3.077   1.768   4.991 -0.3240 -0.0582 -0.0104
 2767WAT     H2 8821   3.089   1.624   4.947 -1.5364  0.1830 -1.2351
 2768WAT      O 8822   5.304   2.099   4.232 -0.2238 -0.3875 -0.0001
 2768WAT     H1 8823   5.381   2.043   4.231 -0.1106 -0.2383 -0.8437
 2768WAT     H2 8824   5.280   2.106   4.324  0.4011 -0.9376  0.2107
 2769WAT      O 8825   4.386   3.200   3.991  0.1591  0.3157 -0.0860
 2769WAT     H1 8826   4.392   3.123   3.935  1.6438  0.7003 -0.4799
 2769WAT     H2 8827   4.336   3.170   4.067  1.1721 -1.1902  0.0231
 2770WAT      O 8828   6.193   0.124   2.607 -0.1381  0.3800  0.3678
 2770WAT     H1 8829   6.168   0.060   2.674  1.2258  1.2069  1.7149
 2770WAT     H2 8830   6.288   0.129   2.613 -0.0867  1.3220 -0.8779
 2771WAT      O 8831   1.837   1.073   4.764 -0.3760  0.2269  0.1183
 2771WAT     H1 8832   1.827   1.038   4.676  1.2854 -1.0168  0.3706
 2771WAT     H2 8833   1.922   1.118   4.763 -0.1032 -0.2296  1.1940
 2772WAT      O 8834   7.069   2.445   4.976  0.3806 -0.0425 -0.1178
 2772WAT     H1 8835   7.023   2.471   4.896  0.7446 -0.3229 -0.4192
 2772WAT     H2 8836   7.149   2.499   4.976  0.3004  0.0768  0.1422
 2773WAT      O 8837   4.652   3.036   5.233 -0.1821  0.2776  0.0789
 2773WAT     H1 8838   4.647   3.067   5.323  0.1307 -1.1415  0.6018
 2773WAT     H2 8839   4.737   3.068   5.202 -0.2014  0.5968  0.3457
 2774WAT      O 8840   5.398   0.176   2.824  0.0259 -0.0687  0.0174
 2774WAT     H1 8841   5.457   0.148   2.894  0.4128  1.5001  0.3675
 2774WAT     H2 8842   5.322   0.212   2.871 -0.5605 -0.7385 -0.4090
 2775WAT      O 8843   3.617   2.342   4.908 -0.1145  0.0615  0.0020
 2775WAT     H1 8844   3.546   2.366   4.968 -2.2181 -0.7800 -2.0031
 2775WAT     H2 8845   3.661   2.269   4.952  0.6807  1.6915  2.0707
 2776WAT      O 8846   3.475   3.269   4.670 -0.9002  0.4184  0.2960
 2776WAT     H1 8847   3.435   3.356   4.667 -0.7950  0.5158  1.3436
 2776WAT     H2 8848   3.489   3.252   4.763  1.2127  0.2503 -0.0041
 2777WAT      O 8849   4.465   4.859   5.668  0.0328  0.4669  0.5124
 2777WAT     H1 8850   4.554   4.847   5.635  0.0227  2.4707 -0.3594
 2777WAT     H2 8851   4.412   4.871   5.590 -0.7557  0.7918  1.0862
 2778WAT      O 8852   5.338   3.612   0.179 -0.0230 -0.3501  0.1505
 2778WAT     H1 8853   5.373   3.664   0.107 -1.5005  1.9885  1.0255
 2778WAT     H2 8854   5.384   3.644   0.257 -0.5185 -0.7842  0.6309
 2779WAT      O 8855   4.514   0.542   5.509  0.6300  0.2897 -0.6497
 2779WAT     H1 8856   4.508   0.463   5.455 -0.6242  0.3087 -0.5603
 2779WAT     H2 8857   4.483   0.612   5.451 -2.1567  0.1007  0.4772
 2780WAT      O 8858   4.375   1.931   4.850  0.2197 -0.0393  0.3153
 2780WAT     H1 8859   4.329   1.987   4.788  1.5521 -0.2888 -0.9866
 2780WAT     H2 8860   4.425   1.991   4.905  1.2613  0.1178 -0.7566
 2781WAT      O 8861   3.354   2.685   4.799 -0.0783  0.3125 -0.4605
 2781WAT     H1 8862   3.446   2.656   4.796 -0.2554 -0.2725 -0.3151
 2781WAT     H2 8863   3.313   2.641   4.725  0.2399  2.3249 -1.9359
 2782WAT      O 8864   5.154   3.510   5.055 -0.0023  0.0011  0.0693
 2782WAT     H1 8865   5.195   3.574   4.998  0.6027 -0.2760  0.1878
 2782WAT     H2 8866   5.070   3.549   5.079 -1.1224 -0.6411 -2.4557
 2783WAT      O 8867   2.764   0.874   1.323  0.1520 -0.3023 -0.2278
 2783WAT     H1 8868   2.704   0.800   1.334  0.9199 -1.0949 -1.2478
 2783WAT     H2 8869   2.803   0.886   1.410 -1.0773 -0.0924  0.3299
 2784WAT      O 8870   4.144   4.060   4.502  0.2173 -0.2718  0.0314
 2784WAT     H1 8871   4.147   4.077   4.596  0.6867  1.0417 -0.1981
 2784WAT     H2 8872   4.050   4.061   4.481  0.1432  0.1504  0.3670
 2785WAT      O 8873   3.995   0.100   4.613  0.1790  0.6548 -0.2811
 2785WAT     H1 8874   3.950   0.184   4.609  0.6278  0.8787 -0.6558
 2785WAT     H2 8875   3.964   0.060   4.694  1.6339  2.1175  1.0568
 2786WAT      O 8876   3.655   2.021   5.198  0.4999  0.0932  0.2705
 2786WAT     H1 8877   3.644   1.927   5.185 -3.2320  0.6566 -1.9569
 2786WAT     H2 8878   3.731   2.044   5.145 -0.1047 -1.3162 -1.2852
 2787WAT      O 8879   5.185   3.527   4.218  0.0248  0.3251 -0.5964
 2787WAT     H1 8880   5.123   3.581   4.267 -0.2197  0.3480 -0.9293
 2787WAT     H2 8881   5.133   3.486   4.150  0.4554  0.6979 -1.1642
 2788WAT      O 8882   5.213   1.185   5.210 -0.1873  0.3005 -0.5704
 2788WAT     H1 8883   5.239   1.167   5.300  1.1890 -1.8856 -1.3529
 2788WAT     H2 8884   5.117   1.187   5.213 -0.1670  2.1013  1.2103
 2789WAT      O 8885   2.577   1.446   5.599  0.5716  0.6823 -0.1038
 2789WAT     H1 8886   2.671   1.452   5.583  0.9168  0.2282  1.5758
 2789WAT     H2 8887   2.538   1.501   5.530  1.9937  0.3081 -1.2748
 2790WAT      O 8888   6.860   3.506   0.914  0.0361  0.8091  0.2386
 2790WAT     H1 8889   6.907   3.435   0.957 -0.3325  1.6144  2.0718
 2790WAT     H2 8890   6.774   3.508   0.957  0.6501  3.4552  1.5970
 2791WAT      O 8891   4.303   0.029   4.921  0.0889  0.3782 -0.1716
 2791WAT     H1 8892   4.398   0.036   4.929  0.1728 -0.3735 -0.4807
 2791WAT     H2 8893   4.269   0.053   5.008  0.4332  2.7611 -0.6277
 2792WAT      O 8894   4.986   1.460   3.624  0.3986  0.5381  0.0641
 2792WAT     H1 8895   5.019   1.463   3.534  0.7691 -4.7046 -0.3043
 2792WAT     H2 8896   4.891   1.468   3.615  0.3439 -0.8932 -1.0186
 2793WAT      O 8897   4.680   1.430   5.176  0.2443  0.3604 -0.0015
 2793WAT     H1 8898   4.760   1.398   5.219 -0.3295  0.4965  1.1984
 2793WAT     H2 8899   4.612   1.422   5.242 -0.5540  1.1669 -0.6944
 2794WAT      O 8900   5.044   2.174   0.415 -0.0297 -0.4825  0.2579
 2794WAT     H1 8901   5.109   2.245   0.413  0.1496 -0.6329  0.6298
 2794WAT     H2 8902   4.963   2.217   0.443 -0.1804 -0.2288 -0.5490
 2795WAT      O 8903   4.572   1.699   2.858  0.3195  0.4088 -0.2001
 2795WAT     H1 8904   4.644   1.656   2.813 -1.9998 -1.7274 -2.1961
 2795WAT     H2 8905   4.506   1.712   2.790 -1.3741  1.8470  1.6000
 2796WAT      O 8906   4.709   0.530   3.406  0.3079  0.3900 -0.3992
 2796WAT     H1 8907   4.733   0.592   3.337  1.1026 -1.7083 -2.1039
 2796WAT     H2 8908   4.751   0.448   3.380 -0.5509 -0.8442  1.8646
 2797WAT      O 8909   3.246   0.695   3.966 -0.3791  0.5161 -0.1066
 2797WAT     H1 8910   3.340   0.679   3.972  0.0663  1.6595 -2.5503
 2797WAT     H2 8911   3.229   0.700   3.872 -2.9469  0.1512  0.2535
 2798WAT      O 8912   3.928   1.588   4.924 -0.2869  0.7185  0.3183
 2798WAT     H1 8913   3.845   1.578   4.877  1.1203 -0.5272 -2.1121
 2798WAT     H2 8914   3.963   1.499   4.929  0.3636  1.0518  2.4302
 2799WAT      O 8915   6.327   4.982   4.352 -0.3726 -0.4694 -0.2176
 2799WAT     H1 8916   6.324   4.953   4.261 -1.3933  0.0889 -0.3880
 2799WAT     H2 8917   6.284   5.068   4.350  2.0969  0.8695  0.3287
 2800WAT      O 8918   4.598   0.828   2.602  0.1320  0.1404 -0.9961
 2800WAT     H1 8919   4.687   0.857   2.619  0.4116 -0.6281 -1.0929
 2800WAT     H2 8920   4.596   0.814   2.507  0.0732 -0.3515 -0.9254
 2801WAT      O 8921   4.441   3.092   4.649 -0.1580  0.7922 -0.3144
 2801WAT     H1 8922   4.383   3.067   4.720  0.9943 -2.5304 -0.3740
 2801WAT     H2 8923   4.518   3.129   4.692 -1.3930  3.4454 -0.1718
 2802WAT      O 8924   3.360   1.350   4.090 -0.1411  0.1268  0.3720
 2802WAT     H1 8925   3.443   1.318   4.125  1.0318  2.9379  0.3854
 2802WAT     H2 8926   3.383   1.385   4.004 -1.6918 -0.6374 -0.3850
 2803WAT      O 8927   5.119   5.900   3.470 -0.7177  0.4080  0.3156
 2803WAT     H1 8928   5.200   5.852   3.459 -1.0899 -0.2440  0.3540
 2803WAT     H2 8929   5.118   5.964   3.399  0.2447  1.0257  0.8482
 2804WAT      O 8930   4.974   4.694   5.762 -0.2730 -0.1994  0.5478
 2804WAT     H1 8931   4.983   4.777   5.807  1.5677 -0.0558 -0.0164
 2804WAT     H2 8932   4.898   4.652   5.804 -1.9951  2.2153  0.0572
 2805WAT      O 8933   5.167   1.057   4.944  0.3291 -0.0463 -0.2587
 2805WAT     H1 8934   5.158   0.976   4.995 -1.4769  0.2110 -0.0924
 2805WAT     H2 8935   5.196   1.122   5.009 -2.5904  0.4324  0.7051
 2806WAT      O 8936   4.681   2.583   4.631  0.2163 -1.1113 -0.2796
 2806WAT     H1 8937   4.608   2.644   4.628  1.4347  0.5243  0.8476
 2806WAT     H2 8938   4.719   2.587   4.543  0.8029  0.5329 -0.0023
 2807WAT      O 8939   1.628   2.624   4.565 -0.2855  0.1436  0.2347
 2807WAT     H1 8940   1.610   2.635   4.472 -0.4583 -0.1651  0.2325
 2807WAT     H2 8941   1.543   2.605   4.605 -0.2462  0.4934  0.4874
 2808WAT      O 8942   2.266   3.523   4.121  0.0823  0.0211 -0.3939
 2808WAT     H1 8943   2.312   3.543   4.040  1.7091  0.0284  0.4901
 2808WAT     H2 8944   2.234   3.608   4.152  0.6942  0.2252 -0.3118
 2809WAT      O 8945   4.414   3.009   5.082 -0.4130  0.3590  0.5181
 2809WAT     H1 8946   4.498   3.038   5.117 -0.3872 -1.0889  1.7578
 2809WAT     H2 8947   4.369   2.969   5.157 -1.9764  0.5847 -0.2437
 2810WAT      O 8948   5.944   4.289   4.101 -0.2597  0.4837  0.7612
 2810WAT     H1 8949   5.994   4.273   4.021  1.6296 -0.3623  2.0179
 2810WAT     H2 8950   5.859   4.248   4.085 -0.0458  0.6222 -0.9167
 2811WAT      O 8951   3.835   3.908   4.277 -0.4231 -0.0271  0.1375
 2811WAT     H1 8952   3.844   3.978   4.342 -0.5692  0.5861 -0.4915
 2811WAT     H2 8953   3.798   3.835   4.326 -1.1335  0.6326  0.6153
 2812WAT      O 8954   6.031   1.304   2.488 -0.5688 -0.7315 -0.2431
 2812WAT     H1 8955   6.082   1.384   2.501 -0.5381 -0.7381 -0.3253
 2812WAT     H2 8956   6.044   1.255   2.569  1.2991 -1.7011 -1.0766
 2813WAT      O 8957   4.860   2.409   4.263 -0.2551  0.9825 -0.3249
 2813WAT     H1 8958   4.912   2.428   4.186 -0.4841  2.2683 -0.1839
 2813WAT     H2 8959   4.924   2.393   4.332 -0.0534  0.4859 -0.6220
 2814WAT      O 8960   4.159   1.482   4.084 -0.4795 -0.2244 -0.2326
 2814WAT     H1 8961   4.161   1.515   3.994  0.9294 -0.2218 -0.2177
 2814WAT     H2 8962   4.138   1.559   4.137  0.4541  0.1717 -0.4130
 2815WAT      O 8963   3.463   1.982   3.450 -0.2424  0.2425  0.3214
 2815WAT     H1 8964   3.545   2.013   3.412  0.0941 -2.5659 -1.6236
 2815WAT     H2 8965   3.396   2.039   3.411  0.5370  0.4975 -0.7083
 2816WAT      O 8966   6.448   3.728   4.002  0.2755 -0.2296 -0.5178
 2816WAT     H1 8967   6.357   3.714   4.030  0.3315 -1.6970 -1.0238
 2816WAT     H2 8968   6.498   3.723   4.083 -0.2805  3.3120  0.2247
 2817WAT      O 8969   5.580   0.132   1.751  0.2920  0.0098  0.1073
 2817WAT     H1 8970   5.583   0.114   1.845  1.1265 -0.9878 -0.0964
 2817WAT     H2 8971   5.645   0.201   1.738  1.0192 -0.6723  0.0966
 2818WAT      O 8972   2.637   1.685   2.129  0.0802 -0.2090  0.2370
 2818WAT     H1 8973   2.674   1.758   2.079  0.3600 -0.8928 -0.5808
 2818WAT     H2 8974   2.713   1.632   2.153  0.0416  0.5523  2.1532
 2819WAT      O 8975   2.773   1.714   5.149 -0.1421  0.2687  0.2285
 2819WAT     H1 8976   2.712   1.709   5.075 -0.0581  0.2975  0.1567
 2819WAT     H2 8977   2.858   1.734   5.108 -0.3147  1.4600  0.4253
 2820WAT      O 8978   5.343   1.439   2.203  0.0305  0.4679  0.1711
 2820WAT     H1 8979   5.355   1.359   2.254 -0.6418 -0.3031 -0.8343
 2820WAT     H2 8980   5.248   1.445   2.191 -0.0079  1.9258  1.0104
 2821WAT      O 8981   5.792   1.383   4.107 -0.6761  0.3659  0.1877
 2821WAT     H1 8982   5.703   1.366   4.075 -0.6993  0.1868  0.3430
 2821WAT     H2 8983   5.811   1.309   4.164  0.0355 -0.2277 -0.7771
 2822WAT      O 8984   3.363   3.886   4.420 -0.0905  0.3380 -0.1963
 2822WAT     H1 8985   3.319   3.933   4.490 -1.3353 -1.0524  0.0234
 2822WAT     H2 8986   3.311   3.806   4.409  0.4475  0.2112 -2.2591
 2823WAT      O 8987   2.590   5.189   4.775  0.5973  0.2356 -0.6402
 2823WAT     H1 8988   2.515   5.149   4.818  1.3055 -0.8905 -0.4050
 2823WAT     H2 8989   2.554   5.262   4.726 -0.3096  1.2697  1.4430
 2824WAT      O 8990   6.966   2.585   5.208 -0.2092  0.3767  0.1889
 2824WAT     H1 8991   7.049   2.552   5.172  0.8159  1.4349  1.4512
 2824WAT     H2 8992   6.968   2.558   5.300 -1.6332 -0.1994  0.0722
 2825WAT      O 8993   4.135   2.441   3.704 -0.3351  0.2062  0.3536
 2825WAT     H1 8994   4.120   2.390   3.783  0.2025  1.4190  1.2677
 2825WAT     H2 8995   4.207   2.395   3.660 -0.4238 -0.2993  0.7249
 2826WAT      O 8996   4.245   5.989   3.274  0.3528  0.1531  0.0071
 2826WAT     H1 8997   4.296   6.059   3.235 -0.4313  0.9474  0.3811
 2826WAT     H2 8998   4.170   6.033   3.314 -0.5340 -0.9589 -0.3702
 2827WAT      O 8999   5.795   1.245   3.754  0.0228  0.0792 -0.2343
 2827WAT     H1 9000   5.834   1.329   3.780  1.6421 -0.6106 -0.3241
 2827WAT     H2 9001   5.827   1.183   3.820 -3.0638 -0.1189  1.2643
 2828WAT      O 9002   5.387   3.002   4.173  0.3221 -0.0464 -0.2371
 2828WAT     H1 9003   5.322   3.001   4.244 -1.7678  1.3252 -2.0089
 2828WAT     H2 9004   5.423   3.091   4.175 -1.2681  0.7080 -2.0886
 2829WAT      O 9005   3.760   2.506   4.544  0.1743  0.5894 -0.1160
 2829WAT     H1 9006   3.786   2.423   4.505 -1.3326  0.2070 -0.3541
 2829WAT     H2 9007   3.806   2.572   4.492  1.9150 -0.0859  0.4921
 2830WAT      O 9008   4.099   1.778   4.813 -0.2432 -0.0687  0.4016
 2830WAT     H1 9009   4.104   1.777   4.718 -0.8397 -1.7285  0.3622
 2830WAT     H2 9010   4.042   1.704   4.836  1.7548 -1.2092  2.1349
 2831WAT      O 9011   4.002   0.102   4.157 -0.0922 -0.0430  0.1560
 2831WAT     H1 9012   3.946   0.119   4.233 -0.6111  1.1573 -0.4754
 2831WAT     H2 9013   3.993   0.008   4.143 -0.4066 -0.2000  1.2484
 2832WAT      O 9014   5.093   1.644   3.768  0.3233  0.3198  0.4182
 2832WAT     H1 9015   5.052   1.702   3.704 -1.0539 -1.6614 -0.5770
 2832WAT     H2 9016   5.069   1.556   3.740  1.0274 -0.6983  2.7619
 2833WAT      O 9017   4.048   5.131   4.356  0.2760  0.1427 -0.3500
 2833WAT     H1 9018   4.064   5.172   4.441  0.8526 -0.9938  0.1113
 2833WAT     H2 9019   4.135   5.122   4.316 -0.0876  1.8452 -1.6620
 2834WAT      O 9020   3.912   3.139   4.371 -0.0951  0.0698 -0.5390
 2834WAT     H1 9021   3.878   3.138   4.282 -0.1429  0.1819 -0.5210
 2834WAT     H2 9022   3.843   3.178   4.424 -0.3575 -0.6450 -0.3383
 2835WAT      O 9023   5.743   4.487   5.770 -0.0864  0.2411 -0.0829
 2835WAT     H1 9024   5.693   4.530   5.700  1.3611 -0.8413 -1.8500
 2835WAT     H2 9025   5.682   4.423   5.806 -0.9988  1.1164  0.0080
 2836WAT      O 9026   4.881   2.296   6.006 -0.0540  0.3512 -0.3854
 2836WAT     H1 9027   4.958   2.321   5.955 -0.0384  2.0727  0.4195
 2836WAT     H2 9028   4.915   2.239   6.075  0.4608  0.9112 -0.1737
 2837WAT      O 9029   3.933   2.973   4.988  0.0239  0.5052 -0.2136
 2837WAT     H1 9030   3.966   3.032   4.920  0.9148  0.7393  0.4115
 2837WAT     H2 9031   3.846   2.946   4.956  0.8578 -0.2318 -1.9621
 2838WAT      O 9032   5.966   3.919   5.125 -0.0099 -0.0000  0.2098
 2838WAT     H1 9033   6.049   3.908   5.080 -0.6743 -1.2662 -0.7673
 2838WAT     H2 9034   5.959   3.842   5.182 -0.8641 -0.3237 -0.3111
 2839WAT      O 9035   4.306   1.218   4.367  0.4381 -0.1707  0.0826
 2839WAT     H1 9036   4.307   1.187   4.457  1.3586  1.8795  0.8452
 2839WAT     H2 9037   4.215   1.242   4.350  0.5348  0.9330  1.0414
 2840WAT      O 9038   4.921   1.741   0.609 -0.0363 -0.1647 -0.1445
 2840WAT     H1 9039   4.982   1.797   0.658  1.3604 -1.4259 -0.3746
 2840WAT     H2 9040   4.908   1.665   0.665  1.2873 -1.4630 -1.5270
 2841WAT      O 9041   3.577   2.776   0.810  0.8068 -0.3012  0.2286
 2841WAT     H1 9042   3.647   2.727   0.853  0.5957  0.5824  1.6019
 2841WAT     H2 9043   3.579   2.863   0.849  1.3206  0.9325 -2.3286
 2842WAT      O 9044   3.280   2.724   5.362  0.8000  0.3205  0.2147
 2842WAT     H1 9045   3.326   2.770   5.431  1.6743 -0.7123  0.3507
 2842WAT     H2 9046   3.208   2.782   5.338  0.1584  0.4688  2.3333
 2843WAT      O 9047   4.520   2.844   4.692 -0.2124  0.4680 -0.7120
 2843WAT     H1 9048   4.465   2.803   4.625 -2.4510  1.5126  0.3714
 2843WAT     H2 9049   4.509   2.938   4.678 -0.0432  0.6970  0.5704
 2844WAT      O 9050   5.169   3.208   0.016  0.0240  0.1439  0.1433
 2844WAT     H1 9051   5.132   3.287  -0.025  0.3102  1.0320  1.5432
 2844WAT     H2 9052   5.196   3.153  -0.058 -0.9755  0.9695 -0.8675
 2845WAT      O 9053   5.201   5.716   4.176  0.4519  0.2698  0.7223
 2845WAT     H1 9054   5.175   5.806   4.160  1.2189  1.0235  3.1949
 2845WAT     H2 9055   5.160   5.693   4.260 -0.0560 -1.8519 -0.0338
 2846WAT      O 9056   2.109   2.208   4.615  0.1589 -0.4268 -0.3076
 2846WAT     H1 9057   2.045   2.215   4.686  0.6356 -0.9917  0.1990
 2846WAT     H2 9058   2.065   2.244   4.538 -0.9542 -1.3202 -0.0988
 2847WAT      O 9059   3.159   3.831   3.805  0.5119  0.0049 -0.3375
 2847WAT     H1 9060   3.179   3.759   3.746 -0.8240 -0.8837  0.2370
 2847WAT     H2 9061   3.216   3.818   3.880 -0.3000 -0.9615  0.1300
 2848WAT      O 9062   3.490   3.228   4.211 -0.5551  0.0899  0.2236
 2848WAT     H1 9063   3.471   3.135   4.222 -0.2867 -0.2042 -1.4725
 2848WAT     H2 9064   3.512   3.236   4.118 -0.7168  1.8725  0.3172
 2849WAT      O 9065   4.054   2.981   0.063 -0.1877  0.4093  0.0773
 2849WAT     H1 9066   4.075   3.022  -0.020 -1.5110 -0.8745 -0.9477
 2849WAT     H2 9067   3.966   2.945   0.050 -1.4595  2.1577  2.7898
 2850WAT      O 9068   3.429   5.296   5.262 -0.1265 -0.2995 -0.3135
 2850WAT     H1 9069   3.414   5.390   5.264 -1.7575 -0.5300 -0.2264
 2850WAT     H2 9070   3.524   5.287   5.250  0.0078  1.3403 -0.7453
 2851WAT      O 9071   6.935   1.359   4.024 -0.0988  0.1070 -0.4050
 2851WAT     H1 9072   6.914   1.399   4.108  0.3709 -1.2720  0.3873
 2851WAT     H2 9073   6.883   1.409   3.960 -0.5726  1.0678  0.7070
 2852WAT      O 9074   4.202   2.206   4.877  0.2823  0.1401 -0.1834
 2852WAT     H1 9075   4.132   2.141   4.889 -1.0851  1.4264 -0.8811
 2852WAT     H2 9076   4.230   2.228   4.965 -2.2584  1.7170  0.3357
 2853WAT      O 9077   5.360   2.447   4.931  0.5983  0.5656 -0.1152
 2853WAT     H1 9078   5.455   2.443   4.937  0.5677 -1.3284 -0.1725
 2853WAT     H2 9079   5.340   2.428   4.840  0.1660  0.5896 -0.0319
 2854WAT      O 9080   2.527   2.510   4.637 -0.1081 -0.3623 -0.1764
 2854WAT     H1 9081   2.457   2.456   4.674  0.9242 -1.8240 -0.2652
 2854WAT     H2 9082   2.585   2.448   4.594  2.1050  0.5796  1.2472
 2855WAT      O 9083   1.756   0.904   2.871  0.1143 -0.0849  0.1742
 2855WAT     H1 9084   1.728   0.995   2.882 -1.4945 -0.5679  0.2596
 2855WAT     H2 9085   1.740   0.864   2.957 -1.6871 -1.0693 -0.5817
 2856WAT      O 9086   2.836   3.036   3.976  0.3951  0.0902 -0.3667
 2856WAT     H1 9087   2.751   3.012   3.940 -0.2661  1.5809  0.1289
 2856WAT     H2 9088   2.873   2.953   4.006 -0.6066 -0.6646 -1.1479
 2857WAT      O 9089   5.038   4.919   3.856 -0.5066 -0.5053 -0.3496
 2857WAT     H1 9090   5.133   4.921   3.850 -0.5653 -0.7400 -1.7752
 2857WAT     H2 9091   5.010   5.005   3.824 -0.8229 -1.1120 -1.7565
 2858WAT      O 9092   3.942   3.840   5.289 -0.2061 -0.1694 -0.8565
 2858WAT     H1 9093   3.908   3.802   5.208 -0.8464  0.2305 -0.7858
 2858WAT     H2 9094   3.889   3.800   5.358 -1.9553  1.9032 -0.8752
 2859WAT      O 9095   4.714   4.146   4.908 -0.4872  0.3027 -0.3189
 2859WAT     H1 9096   4.662   4.163   4.987  0.9461  0.1080  0.7256
 2859WAT     H2 9097   4.673   4.198   4.840 -1.0021  1.5262  0.8844
 2860WAT      O 9098   5.847   2.389   3.592  0.3410 -0.2655 -0.7035
 2860WAT     H1 9099   5.862   2.471   3.544  0.9706  1.0518  1.5839
 2860WAT     H2 9100   5.885   2.322   3.536  1.3602  1.2039 -1.8758
 2861WAT      O 9101   4.589   3.302   5.700  0.7135 -0.6707 -0.1221
 2861WAT     H1 9102   4.667   3.270   5.745  1.0611  1.7751  1.1867
 2861WAT     H2 9103   4.516   3.262   5.748  1.0311 -3.3166 -1.6183
 2862WAT      O 9104   5.368   2.771   2.178  0.5340 -0.2164  0.2900
 2862WAT     H1 9105   5.431   2.839   2.201  0.7005  0.2585 -1.4503
 2862WAT     H2 9106   5.307   2.813   2.118 -0.2149 -1.2367  0.2962
 2863WAT      O 9107   7.388   1.675   4.131 -0.0053  0.3392  0.3373
 2863WAT     H1 9108   7.423   1.659   4.219  0.6561  0.3685  0.0850
 2863WAT     H2 9109   7.303   1.631   4.131  0.5238 -0.7216  0.5916
 2864WAT      O 9110   6.021   4.190   5.128 -0.0106  0.3314  0.2749
 2864WAT     H1 9111   6.083   4.215   5.060  1.0814 -0.4036  0.9822
 2864WAT     H2 9112   6.009   4.096   5.116  0.3903  0.1485  1.2517
 2865WAT      O 9113   3.829   2.164   5.022 -0.1565 -0.2200 -0.0016
 2865WAT     H1 9114   3.880   2.220   5.080  0.8892  0.4435 -1.5143
 2865WAT     H2 9115   3.894   2.118   4.969 -1.0876  0.2079 -1.5849
 2866WAT      O 9116   4.988   3.256   4.244 -0.0231 -0.3984 -0.1767
 2866WAT     H1 9117   4.959   3.214   4.325 -0.7229 -1.8960 -1.1524
 2866WAT     H2 9118   4.954   3.345   4.250 -2.8686 -1.3770 -0.1899
 2867WAT      O 9119   5.247   3.537   3.031 -0.4687 -0.4970  0.4717
 2867WAT     H1 9120   5.172   3.509   3.083  0.0586 -2.6235  0.1988
 2867WAT     H2 9121   5.214   3.542   2.941 -0.8573  1.0551  0.6766
 2868WAT      O 9122   6.598   4.550   4.124 -0.1986  0.2579 -0.2908
 2868WAT     H1 9123   6.539   4.484   4.087  0.0610  0.3335 -0.8538
 2868WAT     H2 9124   6.578   4.551   4.218 -0.2939 -0.5240 -0.2998
 2869WAT      O 9125   5.526   4.434   4.300  0.3943  0.0305  0.4086
 2869WAT     H1 9126   5.452   4.381   4.272 -0.1632  0.9516  0.1013
 2869WAT     H2 9127   5.578   4.375   4.355  0.6689 -1.3391 -1.2247
 2870WAT      O 9128   2.647   2.315   4.479 -0.3347  0.2066  0.8279
 2870WAT     H1 9129   2.714   2.248   4.469 -0.6953  0.0957 -1.1786
 2870WAT     H2 9130   2.568   2.276   4.442 -0.8594  1.2836  0.7717
 2871WAT      O 9131   3.628   2.079   5.691  0.1333  0.1883 -0.0866
 2871WAT     H1 9132   3.574   2.005   5.663 -0.4832  0.3425  0.6502
 2871WAT     H2 9133   3.669   2.111   5.611 -0.9713  0.1335 -0.6951
 2872WAT      O 9134   2.271   1.420   0.945  0.0886  0.5416  0.2282
 2872WAT     H1 9135   2.216   1.363   0.998  0.3564  0.0698 -0.0045
 2872WAT     H2 9136   2.319   1.473   1.009 -1.0544  1.3792  0.4364
 2873WAT      O 9137   4.932   1.563   3.098  0.1904  0.1047 -0.1320
 2873WAT     H1 9138   5.015   1.535   3.060  0.3300  1.6164 -1.0159
 2873WAT     H2 9139   4.875   1.486   3.090  1.4253 -0.9067  0.3435
 2874WAT      O 9140   5.891   5.082   4.360  0.4964 -0.6256  0.0913
 2874WAT     H1 9141   5.898   5.083   4.265  1.7438 -0.5171  0.1606
 2874WAT     H2 9142   5.954   5.015   4.388 -0.4017 -1.2026  0.8170
 2875WAT      O 9143   4.419   1.387   4.186 -0.1849 -0.3029 -0.2385
 2875WAT     H1 9144   4.398   1.319   4.251  0.6594 -0.0486  0.3211
 2875WAT     H2 9145   4.334   1.416   4.154 -0.7038  0.3613  1.6003
 2876WAT      O 9146   4.782   1.902   3.763  0.2012 -0.2887  0.2932
 2876WAT     H1 9147   4.818   1.991   3.762 -0.7702  0.1114  0.2677
 2876WAT     H2 9148   4.699   1.910   3.809  0.9462 -1.5241  2.0145
 2877WAT      O 9149   5.074   3.543   0.186 -0.6109  0.9244 -0.2152
 2877WAT     H1 9150   5.157   3.589   0.193 -1.1200  1.7250  1.2086
 2877WAT     H2 9151   5.054   3.542   0.092  1.8297 -0.9170 -0.8049
 2878WAT      O 9152   3.613   0.923   3.442  0.2735 -0.2493  0.0275
 2878WAT     H1 9153   3.559   0.944   3.367 -0.7286  0.1539  0.8372
 2878WAT     H2 9154   3.700   0.907   3.406  0.0471  0.9402 -1.1014
 2879WAT      O 9155   6.326   2.069   3.623  0.0780  0.4070  0.6442
 2879WAT     H1 9156   6.409   2.045   3.666 -0.0939  1.2282  1.4597
 2879WAT     H2 9157   6.262   2.010   3.663  0.0876  0.4856  0.7754
 2880WAT      O 9158   4.689   1.131   5.272 -0.2753  0.8670  0.0629
 2880WAT     H1 9159   4.630   1.155   5.201 -0.9285 -0.5860  0.0797
 2880WAT     H2 9160   4.675   1.037   5.285  1.1969  0.7147  0.8554
 2881WAT      O 9161   6.721   1.832   1.906  0.3602  0.0392 -0.5519
 2881WAT     H1 9162   6.717   1.850   2.000  0.8571 -0.3430 -0.4529
 2881WAT     H2 9163   6.697   1.739   1.899  1.9448 -0.3891 -0.6295
 2882WAT      O 9164   5.361   2.281   3.166 -0.3514 -0.2936  0.0266
 2882WAT     H1 9165   5.284   2.246   3.122 -0.2802 -2.9504  1.7194
 2882WAT     H2 9166   5.433   2.225   3.136 -0.1151 -1.4390  2.4737
 2883WAT      O 9167   0.181   3.112   3.317 -0.7613 -0.1024 -0.1180
 2883WAT     H1 9168   0.274   3.094   3.323 -1.0425 -1.0656  2.1305
 2883WAT     H2 9169   0.161   3.102   3.224  0.5768 -4.1318 -0.1426
 2884WAT      O 9170   3.664   2.541   3.646  0.3723  0.4416 -0.2538
 2884WAT     H1 9171   3.610   2.538   3.568  1.5447  0.4469 -1.0936
 2884WAT     H2 9172   3.754   2.544   3.613  1.1039 -2.8154  1.0838
 2885WAT      O 9173   3.510   5.069   6.007  0.1077 -0.6509 -0.3734
 2885WAT     H1 9174   3.470   5.040   6.089  0.4357  1.2687  0.5027
 2885WAT     H2 9175   3.506   4.991   5.951 -3.9388 -0.9101 -0.0493
 2886WAT      O 9176   4.990   3.854   4.690  0.1872 -0.2250 -0.2449
 2886WAT     H1 9177   4.974   3.923   4.625  0.7682 -0.3341 -0.5142
 2886WAT     H2 9178   4.911   3.851   4.743  0.2410  0.8117 -0.0894
 2887WAT      O 9179   4.810   5.763   4.562 -0.4030  0.2849  0.4125
 2887WAT     H1 9180   4.786   5.712   4.640 -0.4135 -0.5009 -0.0959
 2887WAT     H2 9181   4.783   5.708   4.488 -1.4701  1.5229 -0.1662
 2888WAT      O 9182   7.116   3.794   5.305  0.1794 -0.5704  0.1213
 2888WAT     H1 9183   7.180   3.866   5.308 -0.7486  0.4738 -2.2427
 2888WAT     H2 9184   7.035   3.833   5.336 -0.4204 -0.4281 -1.5333
 2889WAT      O 9185   6.997   2.536   5.475 -0.3334 -0.5702 -0.2554
 2889WAT     H1 9186   6.997   2.458   5.530 -1.0995  1.2473  2.5488
 2889WAT     H2 9187   7.031   2.606   5.532 -2.0923  1.6542 -1.7412
 2890WAT      O 9188   4.114   0.147   3.310  0.5849 -0.2204  0.1050
 2890WAT     H1 9189   4.019   0.151   3.303  0.2758 -0.8677  2.7700
 2890WAT     H2 9190   4.145   0.225   3.264 -1.1850 -0.2269 -1.1938
 2891WAT      O 9191   4.677   3.983   3.577 -0.0262 -0.0486  0.7428
 2891WAT     H1 9192   4.608   3.980   3.511 -0.2692  1.0951  0.9369
 2891WAT     H2 9193   4.757   4.002   3.528 -0.1487  0.4468  0.7329
 2892WAT      O 9194   4.308   0.831   1.901  0.2476  0.3180 -0.2043
 2892WAT     H1 9195   4.233   0.888   1.884  1.2993  1.6469 -0.4731
 2892WAT     H2 9196   4.335   0.801   1.814 -0.6374 -1.0814 -0.0308
 2893WAT      O 9197   4.918   3.646   5.150 -0.0152  0.6590 -0.5900
 2893WAT     H1 9198   4.902   3.741   5.149 -2.2329  0.3290 -0.6436
 2893WAT     H2 9199   4.932   3.625   5.242 -0.0147  0.9639 -0.5195
 2894WAT      O 9200   5.427   4.039   0.391 -0.0977  0.2834 -0.0907
 2894WAT     H1 9201   5.447   3.946   0.387 -1.6580 -0.0338 -2.1722
 2894WAT     H2 9202   5.502   4.081   0.347  0.3070 -0.0344  0.2856
 2895WAT      O 9203   3.897   3.150   0.496  0.2116  0.1290 -0.4766
 2895WAT     H1 9204   3.925   3.155   0.405  0.1399  1.9776 -0.4229
 2895WAT     H2 9205   3.805   3.176   0.494  0.3920  0.8429  0.2022
 2896WAT      O 9206   2.790   0.956   5.679 -0.2982 -0.2608 -0.5556
 2896WAT     H1 9207   2.869   0.902   5.681  0.0518  0.2691 -0.0019
 2896WAT     H2 9208   2.741   0.930   5.757 -0.3589 -0.1106 -0.5440
 2897WAT      O 9209   4.984   2.429   4.017 -0.1339  1.0288 -0.3270
 2897WAT     H1 9210   4.996   2.503   3.957  1.8040  0.1436 -1.1295
 2897WAT     H2 9211   4.963   2.355   3.959 -1.6082  0.8254  0.4223
 2898WAT      O 9212   3.713   2.886   4.563  0.1277 -0.0299  0.1940
 2898WAT     H1 9213   3.743   2.928   4.483  1.1743 -0.9786  0.0656
 2898WAT     H2 9214   3.774   2.814   4.577 -0.0321  0.1062  1.8452
 2899WAT      O 9215   2.868   0.974   3.025 -0.0435 -0.5746 -0.1727
 2899WAT     H1 9216   2.915   0.947   2.947 -0.2377  0.3585 -0.6309
 2899WAT     H2 9217   2.776   0.957   3.005 -0.1189 -0.0930 -0.2638
 2900WAT      O 9218   4.763   2.093   5.549 -0.3066 -0.1930  0.0863
 2900WAT     H1 9219   4.766   2.134   5.636  2.0086  0.8036 -0.4040
 2900WAT     H2 9220   4.675   2.114   5.516 -1.5879 -1.3496  2.4672
 2901WAT      O 9221   5.605   4.057   4.235 -0.3024  0.6577  0.1267
 2901WAT     H1 9222   5.567   4.138   4.270 -0.2834  0.7471 -0.0592
 2901WAT     H2 9223   5.540   3.989   4.254 -0.5965  0.8242 -0.2739
 2902WAT      O 9224   3.806   1.563   3.382  0.5586  0.0617 -0.0618
 2902WAT     H1 9225   3.892   1.564   3.422  1.4590  1.3341 -1.8965
 2902WAT     H2 9226   3.745   1.551   3.456  2.2773 -1.2006  1.2219
 2903WAT      O 9227   2.462   3.355   2.907  0.4757  0.2768  0.0892
 2903WAT     H1 9228   2.501   3.364   2.821  1.4099 -3.2526  0.0107
 2903WAT     H2 9229   2.536   3.350   2.967  0.0586 -1.6435  0.5119
 2904WAT      O 9230   4.401   0.108   1.928  0.0988  0.2584  0.6020
 2904WAT     H1 9231   4.414   0.053   1.851  0.0489  0.2585  0.5934
 2904WAT     H2 9232   4.450   0.064   1.998  1.6723  1.2124  0.1468
 2905WAT      O 9233   5.929   1.267   2.249  0.0852 -0.2283 -0.2707
 2905WAT     H1 9234   5.955   1.294   2.337  0.2241 -0.6226 -0.1924
 2905WAT     H2 9235   6.010   1.241   2.207 -0.3533 -3.3284  0.5991
 2906WAT      O 9236   4.145   2.039   3.544  0.1098  0.2177  0.3724
 2906WAT     H1 9237   4.080   2.034   3.613  1.1003 -0.5621  1.2870
 2906WAT     H2 9238   4.172   2.131   3.543 -2.2885  1.0076 -1.3103
 2907WAT      O 9239   5.306   1.332   3.051  0.2185 -0.5210  0.3936
 2907WAT     H1 9240   5.400   1.320   3.067  0.5503 -0.3148 -1.2522
 2907WAT     H2 9241   5.284   1.265   2.987  0.0543  1.5667 -1.8837
 2908WAT      O 9242   6.542   3.625   3.766 -0.1074 -0.2881 -0.5221
 2908WAT     H1 9243   6.477   3.627   3.696 -0.0174  2.1590 -0.5963
 2908WAT     H2 9244   6.500   3.669   3.840  0.3449 -1.5133  0.5113
 2909WAT      O 9245   3.975   0.691   3.539  0.1774  0.2538 -0.0097
 2909WAT     H1 9246   3.954   0.750   3.611  1.4280  1.3286 -0.4895
 2909WAT     H2 9247   4.060   0.721   3.507  0.2920 -1.0666 -1.0489
 2910WAT      O 9248   2.588   0.233   4.349  0.1333  0.3323  0.2001
 2910WAT     H1 9249   2.531   0.296   4.305 -0.0622 -0.1335 -0.2099
 2910WAT     H2 9250   2.553   0.147   4.326  0.4058  0.0653  0.7522
 2911WAT      O 9251   4.076   5.542   5.101 -0.0051 -0.5312 -0.3527
 2911WAT     H1 9252   4.061   5.603   5.029 -0.4630 -0.4778 -0.2159
 2911WAT     H2 9253   4.171   5.540   5.112  0.0427 -0.2708 -0.7256
 2912WAT      O 9254   0.369   3.301   5.849 -0.6197 -0.0359 -0.3440
 2912WAT     H1 9255   0.336   3.290   5.938 -1.2182  1.2045 -0.3941
 2912WAT     H2 9256   0.409   3.216   5.827 -2.0087 -0.9202  0.4519
 2913WAT      O 9257   6.490   4.213   1.721  0.0698 -0.1088  0.1619
 2913WAT     H1 9258   6.516   4.219   1.813  0.5016  1.2827 -0.0349
 2913WAT     H2 9259   6.564   4.250   1.673 -0.7234  0.4356 -0.6620
 2914WAT      O 9260   3.046   0.290   2.624  0.0020  0.5000  0.0732
 2914WAT     H1 9261   2.968   0.324   2.581  0.5517  1.0138 -0.5527
 2914WAT     H2 9262   3.057   0.202   2.588 -0.6583  0.1734  0.6633
 2915WAT      O 9263   4.626   3.327   1.332  0.2809 -0.0623 -0.2770
 2915WAT     H1 9264   4.569   3.307   1.406  0.0006 -0.5613 -0.6158
 2915WAT     H2 9265   4.573   3.384   1.276  1.1626  1.8952  0.7998
 2916WAT      O 9266   4.435   1.275   1.780 -0.5073 -0.0727 -0.3129
 2916WAT     H1 9267   4.516   1.290   1.829 -0.0884 -2.7446 -0.0456
 2916WAT     H2 9268   4.369   1.256   1.847 -1.8168  3.4104 -0.4238
 2917WAT      O 9269   4.446   1.510   2.114  0.6443 -0.0524 -0.2310
 2917WAT     H1 9270   4.409   1.558   2.040  0.2233  0.5776  0.3868
 2917WAT     H2 9271   4.393   1.535   2.189  0.7138 -1.1276  0.1936
 2918WAT      O 9272   3.667   2.179   2.180  0.2523 -0.1151  0.3286
 2918WAT     H1 9273   3.667   2.182   2.084  1.4564 -1.3137  0.2710
 2918WAT     H2 9274   3.703   2.093   2.202  1.8342  0.8610  1.8572
 2919WAT      O 9275   4.070   0.118   1.438  0.0325 -0.3271 -0.3718
 2919WAT     H1 9276   3.974   0.120   1.444  0.1182  0.3900  1.5331
 2919WAT     H2 9277   4.096   0.210   1.446  0.9307 -0.6807  1.4954
 2920WAT      O 9278   5.317   5.399   1.689 -0.3557 -0.0439  0.3218
 2920WAT     H1 9279   5.244   5.458   1.670 -1.5681 -1.4543  0.3916
 2920WAT     H2 9280   5.379   5.452   1.738 -1.7041  0.9855  0.9714
 2921WAT      O 9281   4.642   2.307   2.586  0.5318 -0.0115  0.0200
 2921WAT     H1 9282   4.685   2.310   2.671  0.1759 -0.8662  0.2393
 2921WAT     H2 9283   4.704   2.261   2.529  0.7301  0.4784 -0.1709
 2922WAT      O 9284   3.998   1.741   4.525 -0.0228  0.0565  0.1678
 2922WAT     H1 9285   4.092   1.747   4.506 -0.0485  0.8844  0.2324
 2922WAT     H2 9286   3.982   1.648   4.540  0.7338 -0.1284 -0.1185
 2923WAT      O 9287   4.322   1.463   3.250 -0.5908 -0.3604  0.1063
 2923WAT     H1 9288   4.250   1.525   3.258 -0.7363 -0.4483 -0.4544
 2923WAT     H2 9289   4.305   1.398   3.318 -0.3288  0.3161  0.8259
 2924WAT      O 9290   5.791   3.575   1.386 -0.7372 -0.2090  0.0907
 2924WAT     H1 9291   5.734   3.502   1.358 -0.2806 -0.6064  0.1810
 2924WAT     H2 9292   5.863   3.575   1.323 -1.7433  1.4562 -1.1291
 2925WAT      O 9293   5.070   2.422   2.104  0.1264  0.1822  0.1408
 2925WAT     H1 9294   5.146   2.367   2.124  1.4227  2.4783  2.0293
 2925WAT     H2 9295   5.017   2.420   2.183 -0.3329  0.8163 -0.1402
 2926WAT      O 9296   3.014   2.574   5.814  0.1161  0.0418  0.5385
 2926WAT     H1 9297   3.096   2.575   5.864  0.4070  0.1819  0.0715
 2926WAT     H2 9298   3.035   2.624   5.735 -0.6573  0.7726  0.7830
 2927WAT      O 9299   4.913   4.759   3.393 -0.2380 -0.4068 -0.0748
 2927WAT     H1 9300   4.899   4.720   3.306 -1.0763  0.4920 -0.3715
 2927WAT     H2 9301   4.938   4.686   3.449 -0.1076 -1.0752 -0.9871
 2928WAT      O 9302   6.555   0.322   2.186  0.9587 -0.2495  0.5565
 2928WAT     H1 9303   6.517   0.380   2.121 -0.1191 -3.1694 -1.6353
 2928WAT     H2 9304   6.485   0.307   2.250  1.5865  1.5558  1.7552
 2929WAT      O 9305   4.033   0.600   1.233  0.3534  0.3909  0.0895
 2929WAT     H1 9306   4.096   0.553   1.178 -0.5903 -0.5122 -0.2542
 2929WAT     H2 9307   3.948   0.586   1.191 -0.1909  0.9406  0.9567
 2930WAT      O 9308   0.137   2.506   1.279 -0.0632 -0.2992 -0.6520
 2930WAT     H1 9309   0.063   2.446   1.280 -0.1209 -0.2331  0.1282
 2930WAT     H2 9310   0.195   2.473   1.349  0.4507 -0.1211 -0.9863
 2931WAT      O 9311   5.053   0.471   2.214 -0.1389 -0.1640  0.0547
 2931WAT     H1 9312   4.965   0.506   2.199  0.6432  1.1758 -1.8409
 2931WAT     H2 9313   5.095   0.476   2.128  1.8930 -0.4810  0.9815
 2932WAT      O 9314   5.832   1.391   2.912 -0.4676 -0.4442 -0.0194
 2932WAT     H1 9315   5.818   1.481   2.939  0.0111 -0.2604 -0.3642
 2932WAT     H2 9316   5.927   1.382   2.906 -0.5338 -0.6760 -0.9414
 2933WAT      O 9317   5.366   3.566   2.167 -0.3711  0.1095  0.5867
 2933WAT     H1 9318   5.319   3.487   2.140  1.7675 -1.1853  0.4787
 2933WAT     H2 9319   5.375   3.557   2.262 -0.2958  0.3290  0.6020
 2934WAT      O 9320   7.179   1.287   3.952 -0.0039 -0.8740  0.4883
 2934WAT     H1 9321   7.182   1.249   3.864  2.1900 -0.2310  0.2460
 2934WAT     H2 9322   7.086   1.283   3.976 -0.6483 -1.1108 -1.8244
 2935WAT      O 9323   2.548   2.472   1.811  0.1265  0.7619 -0.0127
 2935WAT     H1 9324   2.457   2.444   1.796  0.4385 -0.3210  0.0042
 2935WAT     H2 9325   2.600   2.415   1.754  0.7460  1.9346 -0.6483
 2936WAT      O 9326   3.245   1.676   1.800  0.4588  0.2627 -0.6191
 2936WAT     H1 9327   3.151   1.659   1.790  0.3167  0.0747  0.8339
 2936WAT     H2 9328   3.254   1.771   1.791  0.1754  0.2422 -1.1092
 2937WAT      O 9329   4.546   1.526   1.052  0.3894  0.1938 -0.5638
 2937WAT     H1 9330   4.580   1.601   1.004  2.3120  1.0111  1.8917
 2937WAT     H2 9331   4.456   1.516   1.021  0.9955  1.6671 -3.0394
 2938WAT      O 9332   4.053   2.326   1.068 -0.0678  0.1302 -0.2122
 2938WAT     H1 9333   3.984   2.361   1.010  0.7957  2.1531 -0.0970
 2938WAT     H2 9334   4.134   2.342   1.020  0.5545  0.6379  0.9791
 2939WAT      O 9335   2.339   1.618   0.422 -0.3733  0.1023  0.0824
 2939WAT     H1 9336   2.293   1.638   0.504 -1.0148 -0.4544 -0.1379
 2939WAT     H2 9337   2.272   1.584   0.364  0.3505 -0.9707 -0.1594
 2940WAT      O 9338   2.417   1.815   1.992  0.3232  0.0065  0.1357
 2940WAT     H1 9339   2.473   1.754   2.041  0.0803  1.1229  1.8998
 2940WAT     H2 9340   2.328   1.787   2.012  0.2224  0.1370 -0.1309
 2941WAT      O 9341   3.326   2.459   2.977  0.3734 -0.0479  0.0166
 2941WAT     H1 9342   3.260   2.444   2.909 -2.0955  2.2755  1.6819
 2941WAT     H2 9343   3.284   2.429   3.058  3.0416 -2.2727  0.7112
 2942WAT      O 9344   3.298   3.747   1.895 -0.9440 -0.4269 -0.0155
 2942WAT     H1 9345   3.344   3.779   1.973 -1.2041 -0.5976  0.2078
 2942WAT     H2 9346   3.368   3.718   1.837 -0.7712 -0.7708  0.3593
 2943WAT      O 9347   4.828   2.144   2.847  0.0838  0.1612 -0.0074
 2943WAT     H1 9348   4.782   2.216   2.892 -0.4812  0.1069 -0.4899
 2943WAT     H2 9349   4.777   2.066   2.869  0.6492 -0.0910  0.4462
 2944WAT      O 9350   5.384   3.050   1.543 -0.2832  0.2282  0.0604
 2944WAT     H1 9351   5.312   3.096   1.587 -0.2122 -2.1933  2.9895
 2944WAT     H2 9352   5.461   3.069   1.597  0.5481 -0.1649 -0.9512
 2945WAT      O 9353   5.029   3.854   2.555  0.3859 -0.1977  0.1831
 2945WAT     H1 9354   4.988   3.933   2.590  0.4815 -0.2328  0.3710
 2945WAT     H2 9355   5.090   3.887   2.488 -0.3724 -0.1772 -0.5206
 2946WAT      O 9356   2.598   0.765   2.923  0.1363  0.0173 -0.2992
 2946WAT     H1 9357   2.509   0.773   2.887 -0.4224 -1.8782  0.5339
 2946WAT     H2 9358   2.641   0.700   2.867  0.9497  0.7861 -0.5824
 2947WAT      O 9359   3.482   1.801   1.671 -0.2323  0.0381 -0.5683
 2947WAT     H1 9360   3.411   1.840   1.722 -0.6350 -0.8141 -0.4625
 2947WAT     H2 9361   3.561   1.843   1.705 -0.2246 -1.9754  2.3322
 2948WAT      O 9362   4.306   1.650   1.237  0.2162 -0.1082 -0.3955
 2948WAT     H1 9363   4.394   1.663   1.272 -0.9168  2.9754  1.7769
 2948WAT     H2 9364   4.305   1.700   1.155  0.9588 -1.7964 -1.4926
 2949WAT      O 9365   4.741   1.540   2.734  0.0919 -0.3125 -0.7834
 2949WAT     H1 9366   4.778   1.455   2.758  0.8992  0.2673  0.1058
 2949WAT     H2 9367   4.749   1.544   2.639 -1.3068 -1.8313 -1.0034
 2950WAT      O 9368   5.489   0.549   2.400 -0.4571  0.1309 -0.5971
 2950WAT     H1 9369   5.470   0.632   2.355 -0.6085  0.2372 -0.3344
 2950WAT     H2 9370   5.481   0.569   2.493  1.8434  0.4347 -0.4105
 2951WAT      O 9371   3.905   2.180   2.634  0.3974  0.0017  0.3189
 2951WAT     H1 9372   3.868   2.240   2.569  0.4504  1.4064  1.5285
 2951WAT     H2 9373   3.990   2.154   2.598 -0.5515 -1.1337 -1.2338
 2952WAT      O 9374   4.903   1.461   0.750  0.0604 -0.0927  0.5909
 2952WAT     H1 9375   4.820   1.507   0.737 -0.5114 -1.5571 -1.4771
 2952WAT     H2 9376   4.881   1.387   0.806  0.3969  0.5101  1.5552
 2953WAT      O 9377   3.797   0.670   2.067  0.0077 -0.0418  0.2447
 2953WAT     H1 9378   3.826   0.602   2.006  0.5176 -0.9224  1.4329
 2953WAT     H2 9379   3.711   0.641   2.096 -0.8697  1.1054 -1.0984
 2954WAT      O 9380   4.894   2.144   1.906 -0.3209 -0.3915 -0.0274
 2954WAT     H1 9381   4.860   2.066   1.949  0.1672  0.2865  1.6888
 2954WAT     H2 9382   4.989   2.135   1.912 -0.1836 -0.8636 -2.1476
 2955WAT      O 9383   4.555   3.667   2.809  0.0047  0.0570  0.6987
 2955WAT     H1 9384   4.563   3.620   2.726  1.3356  0.2942  0.6757
 2955WAT     H2 9385   4.463   3.655   2.835  0.0575 -1.6634  0.1847
 2956WAT      O 9386   5.308   0.167   2.430  0.3638  0.1318 -0.3588
 2956WAT     H1 9387   5.373   0.179   2.499  1.2633 -0.5908 -1.0575
 2956WAT     H2 9388   5.316   0.075   2.405  2.4986  1.0530 -3.7073
 2957WAT      O 9389   4.707   1.150   2.498 -0.2962  0.1082 -0.3550
 2957WAT     H1 9390   4.688   1.141   2.404 -1.1822 -0.5169 -0.1220
 2957WAT     H2 9391   4.776   1.086   2.514  0.1412  0.4910 -0.6476
 2958WAT      O 9392   3.418   0.752   3.009 -0.2062  0.3735  0.3572
 2958WAT     H1 9393   3.351   0.719   2.949  0.1845  3.0204 -1.7624
 2958WAT     H2 9394   3.499   0.750   2.958  0.3980  1.5477  1.2146
 2959WAT      O 9395   3.594   0.724   4.529 -0.2068  0.0807  0.1145
 2959WAT     H1 9396   3.652   0.800   4.534  0.2635 -0.3646  2.1199
 2959WAT     H2 9397   3.525   0.743   4.592  0.5073 -1.5954  1.4638
 2960WAT      O 9398   5.610   6.129   3.226  0.0861  0.9639  0.3577
 2960WAT     H1 9399   5.699   6.142   3.260  1.2012 -0.0342 -1.9575
 2960WAT     H2 9400   5.581   6.217   3.204  0.4817  1.3039  1.1224
 2961WAT      O 9401   2.743   1.665   0.174 -0.4764 -0.1893 -0.2227
 2961WAT     H1 9402   2.782   1.580   0.193  0.8514  0.5496  0.4465
 2961WAT     H2 9403   2.713   1.658   0.084 -3.3997 -2.4690  0.7473
 2962WAT      O 9404   5.589   2.002   1.912  0.1244  0.4061  0.4205
 2962WAT     H1 9405   5.559   2.093   1.920 -0.7700  0.3141 -1.3380
 2962WAT     H2 9406   5.677   2.009   1.876 -0.7272  0.6162 -1.8097
 2963WAT      O 9407   5.865   3.014   3.117  0.1807 -0.1828 -0.2527
 2963WAT     H1 9408   5.783   3.043   3.076  0.0911 -0.0462  0.0230
 2963WAT     H2 9409   5.933   3.042   3.055  0.1541  1.2120  0.3066
 2964WAT      O 9410   3.502   2.078   0.090 -0.0396  0.4416 -1.1863
 2964WAT     H1 9411   3.448   1.999   0.095  0.6806 -0.1232 -1.9194
 2964WAT     H2 9412   3.587   2.046   0.058  1.2464  1.0718  1.3603
 2965WAT      O 9413   3.060   1.017   1.190  0.4868 -0.0201 -0.7256
 2965WAT     H1 9414   3.074   1.003   1.284 -1.6894  1.0018 -0.1578
 2965WAT     H2 9415   3.096   1.104   1.174 -1.7431  1.1244 -0.0556
 2966WAT      O 9416   4.421   5.620   0.189  0.2888  0.2393 -0.6068
 2966WAT     H1 9417   4.515   5.618   0.169  0.1437 -1.1074 -1.3176
 2966WAT     H2 9418   4.414   5.570   0.270  0.0547 -0.9637 -1.3370
 2967WAT      O 9419   3.296   3.249   1.243 -0.3368 -1.0105 -0.3194
 2967WAT     H1 9420   3.315   3.254   1.337 -0.9811 -0.9674 -0.1834
 2967WAT     H2 9421   3.293   3.156   1.224  0.0314 -1.0153 -0.3445
 2968WAT      O 9422   6.191   1.230   2.154  0.1522 -0.3301  0.5602
 2968WAT     H1 9423   6.241   1.171   2.097  1.6731  0.3261  1.1664
 2968WAT     H2 9424   6.256   1.267   2.213 -1.0517  0.6674  1.3044
 2969WAT      O 9425   4.187   1.136   2.238 -0.3657 -0.3084  0.2568
 2969WAT     H1 9426   4.121   1.117   2.305  1.0002  2.5649  2.6452
 2969WAT     H2 9427   4.254   1.069   2.250 -0.1857  0.1010  1.7816
 2970WAT      O 9428   4.283   3.062   0.503 -0.7266  0.4365 -0.1214
 2970WAT     H1 9429   4.377   3.051   0.493 -0.7237  0.1169  0.2100
 2970WAT     H2 9430   4.260   3.001   0.573 -0.6749  2.7405  2.0291
 2971WAT      O 9431   5.016   1.442   1.500 -0.5897  0.3261 -0.2882
 2971WAT     H1 9432   4.980   1.529   1.519  0.6492  0.7135  0.3910
 2971WAT     H2 9433   4.940   1.390   1.473 -1.6240  1.1555  0.8937
 2972WAT      O 9434   3.717   1.244   1.435  0.0292 -0.1721  0.6613
 2972WAT     H1 9435   3.637   1.206   1.397  0.3648 -0.6696  0.4414
 2972WAT     H2 9436   3.787   1.215   1.377  0.3081  0.7589  0.5119
 2973WAT      O 9437   0.314   2.166   1.656 -0.4049 -0.0349 -0.1509
 2973WAT     H1 9438   0.232   2.215   1.665 -1.0288 -1.0438 -0.1681
 2973WAT     H2 9439   0.311   2.101   1.726 -1.0682 -2.0540 -1.9367
 2974WAT      O 9440   6.012   3.269   2.888 -0.0956 -0.8722 -0.4226
 2974WAT     H1 9441   5.974   3.200   2.832  0.1490 -1.1381 -0.2665
 2974WAT     H2 9442   6.107   3.258   2.878  0.0094  1.0448 -2.3633
 2975WAT      O 9443   3.237   2.808   1.520 -0.0278  0.1219 -0.0538
 2975WAT     H1 9444   3.145   2.825   1.498  0.1796  0.3391 -0.7939
 2975WAT     H2 9445   3.265   2.742   1.457  1.0172  1.8773 -1.5215
 2976WAT      O 9446   5.494   2.736   1.808 -0.4350  0.1617 -0.2687
 2976WAT     H1 9447   5.433   2.729   1.735 -0.2845 -0.5181 -0.3365
 2976WAT     H2 9448   5.471   2.663   1.865  1.0337 -0.7735 -0.8439
 2977WAT      O 9449   4.914   1.998   0.949 -0.4102 -0.5653  0.3686
 2977WAT     H1 9450   4.969   1.968   0.876 -1.3200 -1.3843 -0.0014
 2977WAT     H2 9451   4.940   2.089   0.962  1.0339 -0.9284  0.2107
 2978WAT      O 9452   7.210   1.585   2.159 -0.0490  0.1051  0.2545
 2978WAT     H1 9453   7.252   1.669   2.174  2.0919 -0.5318 -1.4910
 2978WAT     H2 9454   7.118   1.600   2.175  0.4311  2.4810  1.0849
 2979WAT      O 9455   3.348   3.736   4.736 -0.5021  0.1252 -0.4866
 2979WAT     H1 9456   3.360   3.821   4.693 -2.0826  0.7881  0.3036
 2979WAT     H2 9457   3.270   3.747   4.791  0.0622 -1.4175  0.7119
 2980WAT      O 9458   3.789   0.753   0.261 -0.4723  0.0742 -0.0830
 2980WAT     H1 9459   3.703   0.712   0.276 -1.0680  1.4156  0.3305
 2980WAT     H2 9460   3.769   0.846   0.250  0.8996  0.3421 -0.4342
 2981WAT      O 9461   0.297   0.519   2.533 -0.5906 -1.1837  0.1178
 2981WAT     H1 9462   0.258   0.503   2.619 -1.2751 -1.7424 -0.2902
 2981WAT     H2 9463   0.225   0.552   2.479  0.4719  2.3093  0.5753
 2982WAT      O 9464   5.740   2.270   0.328  0.3872  0.3626 -0.8031
 2982WAT     H1 9465   5.809   2.310   0.381 -0.3885  1.4340 -0.5710
 2982WAT     H2 9466   5.784   2.247   0.246  1.0453  0.9441 -0.6216
 2983WAT      O 9467   2.969   1.327   1.388 -0.4092  0.5917  0.2408
 2983WAT     H1 9468   3.008   1.240   1.396  1.1320  1.1941 -0.3146
 2983WAT     H2 9469   2.889   1.323   1.440  0.1281 -0.8647  0.9981
 2984WAT      O 9470   5.171   2.472   3.527  0.4242  0.0695 -0.1184
 2984WAT     H1 9471   5.133   2.466   3.440  0.7564  0.2436 -0.2761
 2984WAT     H2 9472   5.255   2.427   3.520  0.0681 -0.6909  0.3350
 2985WAT      O 9473   5.356   0.234   1.654 -0.0179 -0.3703 -0.4244
 2985WAT     H1 9474   5.303   0.161   1.623  1.6161 -1.8433  0.0557
 2985WAT     H2 9475   5.442   0.195   1.674  0.6198  1.4856  0.8093
 2986WAT      O 9476   5.188   4.071   5.791  0.6376 -0.0803  0.1004
 2986WAT     H1 9477   5.273   4.055   5.751  0.1640 -1.1870 -0.5105
 2986WAT     H2 9478   5.163   3.987   5.829 -0.5315  0.0120 -0.4177
 2987WAT      O 9479   0.485   0.709   2.632 -0.3914 -0.9366  0.1452
 2987WAT     H1 9480   0.432   0.751   2.700 -0.0633 -0.5935  0.1951
 2987WAT     H2 9481   0.429   0.640   2.596  0.4109 -3.1503  2.7615
 2988WAT      O 9482   4.305   2.256   3.571 -0.4622  0.1884  0.4623
 2988WAT     H1 9483   4.371   2.307   3.523 -0.9653 -1.9337 -2.7563
 2988WAT     H2 9484   4.339   2.252   3.661  2.3300  1.5343 -0.4182
 2989WAT      O 9485   4.957   0.826   1.955 -0.6971  0.1767 -0.1729
 2989WAT     H1 9486   4.864   0.814   1.970 -0.2985 -0.7117  1.7608
 2989WAT     H2 9487   4.997   0.824   2.042  0.9413  2.4010 -0.7680
 2990WAT      O 9488   4.749   1.130   2.841  0.0954 -0.3584 -0.6497
 2990WAT     H1 9489   4.734   1.051   2.789  1.3240  0.1421 -1.8250
 2990WAT     H2 9490   4.836   1.159   2.815  0.5390  0.2245  1.3253
 2991WAT      O 9491   3.519   1.520   5.248  0.2807 -0.4049 -0.0894
 2991WAT     H1 9492   3.477   1.604   5.265  1.0364  0.4949 -2.2897
 2991WAT     H2 9493   3.508   1.471   5.329 -0.8938  1.5006  0.9832
 2992WAT      O 9494   1.645   2.627   1.924  0.1672  0.0252 -0.2732
 2992WAT     H1 9495   1.559   2.631   1.965 -0.5256 -2.3802 -1.3079
 2992WAT     H2 9496   1.706   2.643   1.996 -1.0916  1.2264  0.5847
 2993WAT      O 9497   5.812   4.935   2.664 -0.4806 -0.2028 -0.4865
 2993WAT     H1 9498   5.760   4.988   2.604 -2.0785 -1.9068 -0.6843
 2993WAT     H2 9499   5.755   4.921   2.740  1.4595  1.8342  1.5041
 2994WAT      O 9500   2.554   1.915   0.698  0.1275  0.4536 -0.1375
 2994WAT     H1 9501   2.477   1.964   0.669 -1.9989 -1.6586  1.4365
 2994WAT     H2 9502   2.523   1.824   0.703  2.8719 -0.5547  0.2059
 2995WAT      O 9503   2.542   2.942   0.039 -0.1063 -0.0767  0.6740
 2995WAT     H1 9504   2.580   3.024   0.007  1.6061 -1.6956 -1.8971
 2995WAT     H2 9505   2.452   2.943   0.007 -0.1465  0.8543  0.7846
 2996WAT      O 9506   6.102   1.880   3.440 -0.2656  0.4929 -0.5667
 2996WAT     H1 9507   6.192   1.858   3.416  0.2242  1.2036  0.5401
 2996WAT     H2 9508   6.077   1.813   3.504 -0.7163  0.0053 -1.2352
 2997WAT      O 9509   5.261   1.969   1.738 -0.4056 -0.1151  0.4745
 2997WAT     H1 9510   5.317   1.903   1.778  0.2052  0.4045  0.4895
 2997WAT     H2 9511   5.312   2.001   1.663 -1.0818 -0.3126 -0.0794
 2998WAT      O 9512   5.712   0.947   3.480  0.2424  0.2535  0.2116
 2998WAT     H1 9513   5.763   0.925   3.402  1.5946  0.4403  1.0188
 2998WAT     H2 9514   5.777   0.973   3.545 -0.6956 -1.4296  1.9464
 2999WAT      O 9515   5.010   3.149   1.450 -0.3204 -0.1949  0.2838
 2999WAT     H1 9516   5.021   3.208   1.375 -3.2925  0.9505  0.6256
 2999WAT     H2 9517   5.065   3.187   1.519  2.2168 -1.0974 -1.0991
 3000WAT      O 9518   3.115   2.696   2.391 -0.7298  0.2689  0.3040
 3000WAT     H1 9519   3.198   2.656   2.365 -1.4499 -1.6491  0.8219
 3000WAT     H2 9520   3.141   2.764   2.453  0.5189  0.4260 -0.3473
 3001WAT      O 9521   3.952   2.478   2.590 -0.1828 -0.1412  0.3346
 3001WAT     H1 9522   4.045   2.463   2.573 -0.2506 -0.6078  0.3630
 3001WAT     H2 9523   3.911   2.468   2.504 -0.3639 -1.2266  0.5290
 3002WAT      O 9524   3.347   2.273   1.761 -0.1037 -0.5558  0.1250
 3002WAT     H1 9525   3.437   2.306   1.763 -0.3899  0.2663 -0.0256
 3002WAT     H2 9526   3.295   2.348   1.729 -0.7062 -1.3309 -0.7657
 3003WAT      O 9527   4.070   2.933   4.237 -0.6116  0.0642  0.3439
 3003WAT     H1 9528   4.126   2.992   4.186 -1.0100 -0.0406 -0.2281
 3003WAT     H2 9529   4.045   2.984   4.314  1.9393 -0.5694  1.7251
 3004WAT      O 9530   1.718   1.391   2.144 -0.1084 -0.2143 -0.1736
 3004WAT     H1 9531   1.779   1.420   2.076  0.8375  0.9886  1.1123
 3004WAT     H2 9532   1.755   1.310   2.178  0.1686 -0.0791 -0.1557
 3005WAT      O 9533   3.400   1.830   3.002 -0.2237 -0.0899  0.2275
 3005WAT     H1 9534   3.418   1.921   2.978  2.0470 -0.8082 -1.0885
 3005WAT     H2 9535   3.480   1.800   3.044 -0.3142 -1.9200 -0.8152
 3006WAT      O 9536   5.066   0.977   1.766  0.2488 -0.3594 -0.2875
 3006WAT     H1 9537   5.037   0.924   1.841 -0.2309 -0.8992 -0.8441
 3006WAT     H2 9538   5.075   0.914   1.694 -0.5729  0.3417 -1.0266
 3007WAT      O 9539   4.778   2.207   3.780  0.7261 -0.5812 -0.0824
 3007WAT     H1 9540   4.786   2.214   3.875 -1.1756 -1.9835  0.2354
 3007WAT     H2 9541   4.770   2.297   3.750 -2.2519 -0.1895  1.5242
 3008WAT      O 9542   3.176   2.232   1.172 -0.3796 -0.5567 -0.1230
 3008WAT     H1 9543   3.219   2.267   1.250 -0.4037  1.0705 -0.7959
 3008WAT     H2 9544   3.100   2.185   1.206 -0.3503  0.0634  0.8499
 3009WAT      O 9545   3.428   2.776   1.755  0.2261  0.2464 -0.2867
 3009WAT     H1 9546   3.515   2.761   1.719  0.2336 -0.7729  0.1381
 3009WAT     H2 9547   3.370   2.776   1.678  0.5651  0.7525 -0.5512
 3010WAT      O 9548   4.318   2.010   0.575  0.4801  0.2712 -0.1869
 3010WAT     H1 9549   4.229   2.042   0.558  0.9018  0.9632 -1.1586
 3010WAT     H2 9550   4.359   2.006   0.489  0.5384 -2.7950 -0.1350
 3011WAT      O 9551   5.008   2.844   0.574 -1.1575  0.5843  0.4153
 3011WAT     H1 9552   5.055   2.822   0.494 -1.5260 -0.2487  0.4094
 3011WAT     H2 9553   4.928   2.791   0.570 -0.2549 -1.0612  2.2782
 3012WAT      O 9554   5.040   2.910   0.816  0.0896 -0.6680 -0.4288
 3012WAT     H1 9555   5.033   2.900   0.721  1.1637 -0.5712 -0.5279
 3012WAT     H2 9556   4.949   2.911   0.847 -0.2616 -1.0661 -1.4125
 3013WAT      O 9557   3.426   1.427   5.997 -0.1277 -0.0562  0.0902
 3013WAT     H1 9558   3.362   1.473   5.942  0.5628 -1.6248 -2.1880
 3013WAT     H2 9559   3.409   1.335   5.980  0.8986 -0.5613  1.6735
 3014WAT      O 9560   5.704   1.445   2.598  0.3847  0.2082 -0.3211
 3014WAT     H1 9561   5.617   1.476   2.624 -0.9272 -0.4870 -3.5177
 3014WAT     H2 9562   5.732   1.389   2.671 -2.4568 -0.6770  0.1958
 3015WAT      O 9563   5.974   3.030   2.549 -0.5811 -0.7301  0.0656
 3015WAT     H1 9564   5.947   3.030   2.458 -1.2591 -0.3451  0.2656
 3015WAT     H2 9565   5.898   2.996   2.597  0.4535 -2.9150  0.2970
 3016WAT      O 9566   5.106   1.830   1.162 -0.2365  0.1134  0.0435
 3016WAT     H1 9567   5.083   1.920   1.138 -1.3659  0.0404  0.7455
 3016WAT     H2 9568   5.107   1.782   1.080 -1.3240  0.4230 -0.1658
 3017WAT      O 9569   6.889   2.908   1.200 -0.0241  0.4184 -0.5036
 3017WAT     H1 9570   6.863   2.936   1.113  0.9222 -0.0098 -0.9434
 3017WAT     H2 9571   6.959   2.844   1.185 -0.4302 -0.3079  0.5361
 3018WAT      O 9572   2.853   3.732   1.649 -0.8926  0.6249 -0.0151
 3018WAT     H1 9573   2.938   3.713   1.688 -0.7025  1.9153  0.2532
 3018WAT     H2 9574   2.861   3.702   1.558 -0.5043 -0.1767  0.2756
 3019WAT      O 9575   7.380   0.619   2.874 -0.4909 -0.6224  0.3125
 3019WAT     H1 9576   7.336   0.654   2.797 -0.8575 -0.9905  0.3493
 3019WAT     H2 9577   7.423   0.694   2.915 -0.5071 -0.3840 -0.1099
 3020WAT      O 9578   6.002   3.479   0.672  0.2934  0.3583 -0.2629
 3020WAT     H1 9579   5.945   3.554   0.687  0.0761 -0.0947  1.3721
 3020WAT     H2 9580   5.942   3.408   0.649  0.0249 -0.3316  2.2641
 3021WAT      O 9581   4.672   1.747   2.444  0.4488 -0.0769  0.0644
 3021WAT     H1 9582   4.626   1.828   2.465 -3.2146 -2.3037  1.4992
 3021WAT     H2 9583   4.677   1.746   2.348  1.3592  2.1355  0.0339
 3022WAT      O 9584   5.137   2.223   3.008 -0.3490 -0.5414  0.2768
 3022WAT     H1 9585   5.137   2.294   2.943  1.0279  0.0436  0.8717
 3022WAT     H2 9586   5.057   2.174   2.989 -1.1744  0.9604 -0.3760
 3023WAT      O 9587   2.571   2.031   2.235  0.4127 -0.0662 -0.1624
 3023WAT     H1 9588   2.518   2.069   2.165 -1.2812  1.0690  1.6364
 3023WAT     H2 9589   2.538   1.942   2.245  2.3360 -1.1385 -2.3481
 3024WAT      O 9590   4.104   0.547   2.551  0.4718 -0.0373  0.5741
 3024WAT     H1 9591   4.080   0.634   2.584  2.0385 -0.2668  2.5623
 3024WAT     H2 9592   4.173   0.563   2.487 -0.9094  0.2687 -0.9091
 3025WAT      O 9593   5.030   5.528   0.314  0.1753 -0.3240  0.0707
 3025WAT     H1 9594   5.027   5.622   0.292  1.8820  0.2194  1.8251
 3025WAT     H2 9595   5.086   5.490   0.246  0.9911  0.3009  0.3753
 3026WAT      O 9596   0.564   1.452   2.384  0.1487  0.0698  0.0972
 3026WAT     H1 9597   0.545   1.545   2.391  0.4481  0.2802 -1.5178
 3026WAT     H2 9598   0.493   1.409   2.432 -0.3754  1.1043  0.2642
 3027WAT      O 9599   1.405   1.826   5.553  0.0230  0.7281 -0.1143
 3027WAT     H1 9600   1.456   1.893   5.507 -0.7870  0.7556 -1.0040
 3027WAT     H2 9601   1.460   1.747   5.548  0.9964  1.2930  0.9704
 3028WAT      O 9602   5.154   5.968   1.660 -0.2111 -0.5116  0.1359
 3028WAT     H1 9603   5.159   5.897   1.724 -1.0106 -1.0551 -0.3839
 3028WAT     H2 9604   5.180   5.928   1.577  1.7356  0.4200  0.2582
 3029WAT      O 9605   5.171   1.700   5.508  0.4278  0.4056 -0.4716
 3029WAT     H1 9606   5.165   1.656   5.592 -1.2574  0.2119 -0.6494
 3029WAT     H2 9607   5.155   1.792   5.528 -1.7266  0.1366 -0.7347
 3030WAT      O 9608   4.568   2.791   2.015  0.3659 -0.1251 -0.3332
 3030WAT     H1 9609   4.532   2.711   1.976  1.2805 -1.3778  1.2392
 3030WAT     H2 9610   4.497   2.855   2.009 -0.6706 -1.2930 -0.9364
 3031WAT      O 9611   3.004   1.783   5.693 -0.0719  0.4286 -0.5933
 3031WAT     H1 9612   2.998   1.747   5.781  1.0642  0.9792 -0.2743
 3031WAT     H2 9613   2.929   1.746   5.646 -0.2287 -0.4973  0.3716
 3032WAT      O 9614   6.642   1.661   2.441  0.2287  0.1089 -0.1235
 3032WAT     H1 9615   6.680   1.700   2.519 -1.3993  0.1469  0.6794
 3032WAT     H2 9616   6.664   1.568   2.448 -1.2358 -0.1738  1.2302
 3033WAT      O 9617   3.485   0.621   1.294 -0.5802 -0.3920 -0.4093
 3033WAT     H1 9618   3.525   0.692   1.244 -0.8344 -0.0290 -0.1052
 3033WAT     H2 9619   3.419   0.664   1.349  0.1023 -0.6977  0.6737
 3034WAT      O 9620   4.352   1.360   2.567  0.9217 -0.0166  0.2389
 3034WAT     H1 9621   4.399   1.278   2.579  0.3359 -0.4613 -0.4401
 3034WAT     H2 9622   4.305   1.373   2.649  0.2450 -0.8788  0.0060
 3035WAT      O 9623   6.285   0.580   3.201 -0.2532 -0.0979  0.4595
 3035WAT     H1 9624   6.314   0.489   3.205 -0.1252 -0.0781 -0.0548
 3035WAT     H2 9625   6.284   0.602   3.108  1.2415  0.9172  0.6525
 3036WAT      O 9626   4.057   2.430   0.744  0.0364 -0.1308  0.1489
 3036WAT     H1 9627   4.041   2.476   0.661 -0.4498  0.2959  0.4775
 3036WAT     H2 9628   3.975   2.436   0.791  0.7812  1.0790  1.3612
 3037WAT      O 9629   4.579   3.153   1.054  0.5158 -0.3140  0.2096
 3037WAT     H1 9630   4.517   3.210   1.100 -0.8571 -0.4898 -1.3512
 3037WAT     H2 9631   4.646   3.213   1.021 -1.0858  0.5297 -1.7016
 3038WAT      O 9632   1.998   0.848   2.011  0.0846 -0.4943  0.4493
 3038WAT     H1 9633   2.039   0.764   1.988  0.5811 -0.8658  2.4507
 3038WAT     H2 9634   2.006   0.852   2.107 -1.9865  0.7933  0.6188
 3039WAT      O 9635   5.456   2.513   3.320 -0.3059  0.0354  0.0291
 3039WAT     H1 9636   5.422   2.427   3.294 -2.8119  0.8065  0.5176
 3039WAT     H2 9637   5.551   2.504   3.313 -0.4903 -2.7602  0.0388
 3040WAT      O 9638   3.634   1.517   2.991 -0.3679 -0.2900 -0.1109
 3040WAT     H1 9639   3.680   1.601   2.991 -1.1537  0.1891 -1.7954
 3040WAT     H2 9640   3.669   1.471   3.067 -0.6205  1.9241  1.4505
 3041WAT      O 9641   1.977   5.953   3.453 -0.2444 -0.6010 -1.0990
 3041WAT     H1 9642   1.923   5.899   3.511 -1.7000  0.1352 -1.7124
 3041WAT     H2 9643   2.007   5.892   3.385 -1.2860 -0.7979 -1.4003
 3042WAT      O 9644   5.032   1.414   3.366  0.4643 -0.4173 -0.2281
 3042WAT     H1 9645   4.983   1.454   3.294 -0.1684 -0.3005  0.2640
 3042WAT     H2 9646   5.044   1.323   3.339  0.9724 -0.1711 -0.8639
 3043WAT      O 9647   3.741   2.011   3.068 -0.2862  0.1025  0.0005
 3043WAT     H1 9648   3.778   2.036   3.153 -1.5353 -0.0587  0.6057
 3043WAT     H2 9649   3.810   2.033   3.006  0.2012  1.3265  0.9217
 3044WAT      O 9650   4.554   1.800   2.191  0.5514 -0.2225 -0.7293
 3044WAT     H1 9651   4.588   1.773   2.106 -0.1278  0.4506 -1.2320
 3044WAT     H2 9652   4.467   1.761   2.196  0.0611  0.8050 -0.9271
 3045WAT      O 9653   5.544   3.494   4.553  0.8157 -0.3887  0.1418
 3045WAT     H1 9654   5.577   3.516   4.640 -0.3908  0.2351  0.4686
 3045WAT     H2 9655   5.618   3.452   4.509  1.3534 -1.0144  1.5696
 3046WAT      O 9656   0.029   2.581   2.355 -0.3066 -0.9887  0.5909
 3046WAT     H1 9657   0.078   2.514   2.404  1.9714  0.3108  0.2030
 3046WAT     H2 9658  -0.059   2.578   2.394  0.8522 -1.3599  3.4519
 3047WAT      O 9659   3.808   2.948   2.396  0.4978  0.5412 -0.3921
 3047WAT     H1 9660   3.801   3.014   2.327  3.0205  2.0575  0.6348
 3047WAT     H2 9661   3.895   2.909   2.383 -0.4029 -1.6818 -0.1518
 3048WAT      O 9662   4.458   0.596   2.105  0.5891  0.0640 -0.4819
 3048WAT     H1 9663   4.544   0.586   2.064  1.2005  1.5985  0.3312
 3048WAT     H2 9664   4.421   0.674   2.062 -0.9642 -1.2922 -1.7237
 3049WAT      O 9665   5.082   1.496   2.144 -0.1157  0.3307 -0.7116
 3049WAT     H1 9666   5.094   1.576   2.094  0.0494  1.2852  0.7914
 3049WAT     H2 9667   4.988   1.481   2.145 -0.1333  0.3934 -1.1362
 3050WAT      O 9668   7.409   1.409   2.221 -0.3676  0.4685  0.0271
 3050WAT     H1 9669   7.328   1.461   2.223 -0.5861  0.2150 -1.2826
 3050WAT     H2 9670   7.473   1.466   2.177  0.2007  0.6938  1.1157
 3051WAT      O 9671   6.158   2.770   2.026 -0.7956  0.5119 -0.2275
 3051WAT     H1 9672   6.245   2.738   2.048 -0.5392  0.1847 -1.6013
 3051WAT     H2 9673   6.170   2.819   1.945 -1.9027  0.3908 -0.4870
 3052WAT      O 9674   4.449   2.031   0.310 -0.0468 -0.0838 -0.0359
 3052WAT     H1 9675   4.402   2.113   0.294  0.5694  0.3591  0.3815
 3052WAT     H2 9676   4.386   1.963   0.287  0.1480  0.4773 -2.5554
 3053WAT      O 9677   3.869   1.324   3.933  0.6091 -0.1542  0.0670
 3053WAT     H1 9678   3.886   1.417   3.948 -1.1615  0.4393 -1.2802
 3053WAT     H2 9679   3.902   1.307   3.844 -1.3570 -0.1358 -0.7071
 3054WAT      O 9680   2.845   1.564   0.565 -0.1176  0.0332 -0.3154
 3054WAT     H1 9681   2.751   1.549   0.573  0.0423 -0.6629  0.3403
 3054WAT     H2 9682   2.872   1.590   0.653  0.4935 -0.8595 -0.2338
 3055WAT      O 9683   3.629   2.128   1.197 -0.4077  0.0269 -0.1045
 3055WAT     H1 9684   3.561   2.069   1.230 -0.7017 -0.4832 -1.5812
 3055WAT     H2 9685   3.592   2.215   1.208 -2.0421 -0.2977 -2.3530
 3056WAT      O 9686   4.991   2.411   4.496 -0.0070  0.0143  0.4552
 3056WAT     H1 9687   5.056   2.466   4.541  0.9126 -0.4671 -0.2517
 3056WAT     H2 9688   4.964   2.347   4.562  2.4560 -1.6421 -0.0191
 3057WAT      O 9689   3.992   4.045   1.635 -0.4648 -0.6483  0.1404
 3057WAT     H1 9690   4.081   4.010   1.623 -1.1537 -2.3909 -0.1936
 3057WAT     H2 9691   4.005   4.125   1.686  1.3406 -0.5383 -0.4039
 3058WAT      O 9692   5.233   3.916   2.381  0.5174  0.4184  0.4375
 3058WAT     H1 9693   5.227   3.878   2.293 -1.1780 -2.5638  1.6655
 3058WAT     H2 9694   5.317   3.884   2.415 -0.2789 -1.2771  0.9610
 3059WAT      O 9695   4.272   1.736   4.467 -0.4194  0.0446  0.0807
 3059WAT     H1 9696   4.314   1.733   4.381 -0.1039 -0.4904  0.2434
 3059WAT     H2 9697   4.282   1.647   4.501 -0.2701  0.3261  0.7967
 3060WAT      O 9698   3.715   3.199   1.462  0.3736 -0.1926  0.2149
 3060WAT     H1 9699   3.623   3.224   1.469  0.1912  0.2768 -2.6379
 3060WAT     H2 9700   3.758   3.246   1.534 -1.2914  1.4028  0.2467
 3061WAT      O 9701   2.390   5.924   1.761 -0.0308  0.1782 -0.3543
 3061WAT     H1 9702   2.323   5.861   1.734  0.9030 -0.5028 -1.1705
 3061WAT     H2 9703   2.365   6.006   1.721 -0.9508  0.2015  0.2387
 3062WAT      O 9704   3.532   2.711   0.539 -0.1818  0.7452  0.6216
 3062WAT     H1 9705   3.546   2.616   0.528  0.7261  0.8731  0.5507
 3062WAT     H2 9706   3.553   2.727   0.630 -0.8483  0.8038  0.7691
 3063WAT      O 9707   2.864   3.160   4.811  0.4552 -0.1515  0.2007
 3063WAT     H1 9708   2.921   3.237   4.813  0.7560 -0.3817  0.4736
 3063WAT     H2 9709   2.817   3.168   4.728 -0.0210  0.6951  0.5409
 3064WAT      O 9710   6.299   2.512   0.922 -0.7185 -0.4111  0.2381
 3064WAT     H1 9711   6.293   2.543   0.832  1.0130  3.2024  1.1948
 3064WAT     H2 9712   6.384   2.468   0.926 -0.4959  0.0154  0.2449
 3065WAT      O 9713   2.160   0.694   1.779  0.1100  0.0829  0.3233
 3065WAT     H1 9714   2.085   0.720   1.726  0.1522 -2.2820 -1.0262
 3065WAT     H2 9715   2.227   0.759   1.760 -0.9741  1.1761  0.1317
 3066WAT      O 9716   3.089   2.813   0.277  0.2632  0.0094  0.1072
 3066WAT     H1 9717   3.038   2.855   0.207 -1.2970  0.2959  1.3622
 3066WAT     H2 9718   3.171   2.788   0.234 -1.5059 -1.9769 -2.4820
 3067WAT      O 9719   4.318   1.020   0.438 -0.2506  0.6558 -0.0734
 3067WAT     H1 9720   4.368   1.064   0.506  1.2434  0.4032 -0.9598
 3067WAT     H2 9721   4.228   1.021   0.470  0.6825 -1.6588  3.0995
 3068WAT      O 9722   4.386   2.615   1.134  0.7507  0.2550  0.2977
 3068WAT     H1 9723   4.341   2.548   1.186  0.4909  0.1956 -0.0000
 3068WAT     H2 9724   4.323   2.638   1.066  0.9607  0.5757  0.2119
 3069WAT      O 9725   4.550   0.852   1.060  0.2555  0.2555 -0.2190
 3069WAT     H1 9726   4.456   0.859   1.046  0.0546 -1.6361 -0.1404
 3069WAT     H2 9727   4.586   0.930   1.019 -1.1253 -0.3702 -2.9076
 3070WAT      O 9728   6.436   2.321   5.306 -0.2239  0.0561 -0.4475
 3070WAT     H1 9729   6.506   2.261   5.330 -0.7350 -1.0169 -1.5146
 3070WAT     H2 9730   6.376   2.320   5.381  0.3280  0.0930 -0.0049
 3071WAT      O 9731   4.996   0.387   1.777  0.6017 -0.1699  0.3922
 3071WAT     H1 9732   4.978   0.309   1.726  0.0557  0.0413  0.2554
 3071WAT     H2 9733   5.064   0.360   1.840  2.5684  0.0158 -1.5416
 3072WAT      O 9734   2.745   2.307   0.439  0.3237 -0.0412  0.1987
 3072WAT     H1 9735   2.774   2.312   0.348 -0.6975  0.4903 -0.1238
 3072WAT     H2 9736   2.819   2.339   0.490  0.2405  1.5412 -0.6031
 3073WAT      O 9737   4.985   2.818   6.008  0.0008 -0.4925 -0.0666
 3073WAT     H1 9738   4.964   2.795   5.917  0.8121  0.3044 -0.4646
 3073WAT     H2 9739   4.904   2.856   6.042 -0.4377 -1.1859 -0.3080
 3074WAT      O 9740   6.286   4.289   0.026 -0.4742 -0.1230 -0.5352
 3074WAT     H1 9741   6.270   4.254  -0.062  1.1886  1.1903 -1.4172
 3074WAT     H2 9742   6.369   4.249   0.053 -0.7891 -0.2369  0.2947
 3075WAT      O 9743   5.185   3.100   5.688  0.0555  0.1122 -0.1453
 3075WAT     H1 9744   5.267   3.119   5.734  0.2483  1.4765 -1.0014
 3075WAT     H2 9745   5.181   3.004   5.685  0.7359  0.0062  1.4260
 3076WAT      O 9746   5.454   3.500   0.813  0.2269  0.1175  0.1342
 3076WAT     H1 9747   5.429   3.591   0.796 -0.0615 -0.0723 -0.4910
 3076WAT     H2 9748   5.423   3.452   0.736  1.5586 -0.3051 -0.1694
 3077WAT      O 9749   5.264   2.657   0.580  0.1165  0.1080  0.1949
 3077WAT     H1 9750   5.230   2.725   0.522  1.0532 -0.4838 -1.0902
 3077WAT     H2 9751   5.198   2.650   0.649 -0.3258  1.8390  0.0047
 3078WAT      O 9752   1.487   2.711   5.582  0.0488 -0.2257 -0.0761
 3078WAT     H1 9753   1.503   2.738   5.491 -0.1861  2.4053  0.5966
 3078WAT     H2 9754   1.573   2.713   5.623  0.0946 -1.0408 -0.1034
 3079WAT      O 9755   5.808   2.213   1.808 -0.1327 -1.0735 -0.0358
 3079WAT     H1 9756   5.725   2.256   1.830 -0.0792 -1.5254  1.0987
 3079WAT     H2 9757   5.812   2.217   1.712 -0.6304  0.5032 -0.0299
 3080WAT      O 9758   5.849   3.117   5.211  0.3724 -0.4962 -0.7298
 3080WAT     H1 9759   5.904   3.065   5.270 -1.9834 -1.9071  0.3987
 3080WAT     H2 9760   5.763   3.074   5.215 -1.3982  2.7549 -0.7631
 3081WAT      O 9761   3.365   1.853   0.188 -0.8865  0.6772  0.1459
 3081WAT     H1 9762   3.283   1.814   0.158 -0.8140  1.1464 -0.6802
 3081WAT     H2 9763   3.424   1.778   0.198 -1.0316  0.4689 -0.5063
 3082WAT      O 9764   5.158   2.827   1.955  0.0650 -0.2049  0.8028
 3082WAT     H1 9765   5.132   2.844   1.864 -1.2562 -0.0641  1.1917
 3082WAT     H2 9766   5.120   2.742   1.975 -0.7731  0.3436  1.6268
 3083WAT      O 9767   5.369   2.889   0.290  0.4960  1.1887  0.1848
 3083WAT     H1 9768   5.437   2.877   0.224  0.9567 -0.7549  0.9208
 3083WAT     H2 9769   5.417   2.899   0.372 -0.0789  0.9899  0.5540
 3084WAT      O 9770   5.646   4.044   0.089 -0.0535 -0.2460 -0.5089
 3084WAT     H1 9771   5.551   4.049   0.075 -0.4315 -0.8102  1.5845
 3084WAT     H2 9772   5.672   3.961   0.049 -0.4509 -0.1386 -0.9995
 3085WAT      O 9773   5.782   3.217   5.531  0.2271  0.1268 -0.3503
 3085WAT     H1 9774   5.832   3.205   5.450  1.8662 -1.3857  0.8167
 3085WAT     H2 9775   5.841   3.264   5.589  0.1365 -1.2119  0.8757
 3086WAT      O 9776   5.538   2.992   2.236  0.4016 -0.1633  0.0163
 3086WAT     H1 9777   5.503   3.015   2.150 -1.6556 -0.7354  0.6360
 3086WAT     H2 9778   5.586   3.069   2.264  0.0917  0.4752 -1.1498
 3087WAT      O 9779   3.109   2.567   2.110  0.4134 -0.4659  0.9583
 3087WAT     H1 9780   3.061   2.640   2.151  0.6320  0.9418 -1.1351
 3087WAT     H2 9781   3.052   2.538   2.039  1.1575 -1.0700  0.5977
 3088WAT      O 9782   5.648   3.671   0.892  0.1382 -0.2122 -0.2210
 3088WAT     H1 9783   5.580   3.676   0.959  1.2935  0.7426  0.9097
 3088WAT     H2 9784   5.730   3.680   0.939  1.0392 -0.5048 -1.6603
 3089WAT      O 9785   5.371   2.531   1.022  0.6342  0.4512 -0.6665
 3089WAT     H1 9786   5.367   2.540   0.927  0.3034 -2.6938 -1.0547
 3089WAT     H2 9787   5.287   2.564   1.053  0.7824  1.5895 -1.4297
 3090WAT      O 9788   5.711   4.080   0.635 -0.1044 -0.2957 -0.7278
 3090WAT     H1 9789   5.668   4.085   0.550  0.2666  0.9653 -0.8623
 3090WAT     H2 9790   5.779   4.147   0.632  1.2689 -1.5968 -0.1665
 3091WAT      O 9791   4.445   3.418   4.976  0.2138  0.1782 -0.0220
 3091WAT     H1 9792   4.480   3.464   5.053  0.3061 -0.3690  0.2635
 3091WAT     H2 9793   4.515   3.359   4.949 -0.4842 -0.9367  0.5616
 3092WAT      O 9794   5.171   2.066   1.363  0.0101  0.3076 -0.2306
 3092WAT     H1 9795   5.133   1.983   1.390  1.3275 -0.3717 -0.3624
 3092WAT     H2 9796   5.172   2.062   1.267  1.0175  0.0010 -0.2232
 3093WAT      O 9797   5.104   2.475   2.572  0.0882 -0.6935  0.4991
 3093WAT     H1 9798   5.057   2.424   2.506 -2.0336  1.0715  0.5411
 3093WAT     H2 9799   5.093   2.426   2.654  0.4024 -1.4995  0.0671
 3094WAT      O 9800   5.075   3.599   0.873 -0.0196 -0.3487  0.1996
 3094WAT     H1 9801   5.137   3.670   0.862  1.0183 -1.0669  1.2070
 3094WAT     H2 9802   5.056   3.570   0.783  0.9363  0.0140 -0.1322
 3095WAT      O 9803   3.482   1.509   1.241 -0.4114 -0.1966 -0.3564
 3095WAT     H1 9804   3.521   1.524   1.327 -1.0700  1.5428 -0.3307
 3095WAT     H2 9805   3.398   1.466   1.261 -1.3010  1.6267  0.0231
 3096WAT      O 9806   3.987   2.065   5.838 -0.0766  0.7873 -0.1479
 3096WAT     H1 9807   4.076   2.036   5.820 -0.3081  1.2948 -2.4604
 3096WAT     H2 9808   3.994   2.161   5.845 -0.2138  0.7041  1.3022
 3097WAT      O 9809   2.450   1.097   5.226 -0.0113  0.0209 -0.1914
 3097WAT     H1 9810   2.380   1.050   5.179 -0.0126 -0.4253  0.2508
 3097WAT     H2 9811   2.512   1.029   5.250  0.0141  0.2545  0.4112
 3098WAT      O 9812   5.120   2.450   5.918 -0.6113  0.7965  0.5021
 3098WAT     H1 9813   5.191   2.386   5.925 -0.6093  0.8446  0.9308
 3098WAT     H2 9814   5.107   2.481   6.007 -2.5666 -0.7275  0.8070
 3099WAT      O 9815   4.598   0.907   1.588 -0.1451  0.1463 -0.3286
 3099WAT     H1 9816   4.579   0.813   1.581  2.4317 -0.4495 -0.5102
 3099WAT     H2 9817   4.682   0.917   1.542  1.4600  1.8784  2.6973
 3100WAT      O 9818   4.907   2.484   0.661 -0.4669 -0.3888 -0.0242
 3100WAT     H1 9819   4.854   2.553   0.621  0.1390 -0.8067 -1.5833
 3100WAT     H2 9820   4.969   2.531   0.717  1.7869  0.6351 -3.1415
 3101WAT      O 9821   4.035   1.570   0.960 -0.0893  0.4157  0.1330
 3101WAT     H1 9822   3.981   1.544   1.035  1.0362 -0.9253  0.5266
 3101WAT     H2 9823   4.043   1.666   0.968  0.0051  0.2998  1.7388
 3102WAT      O 9824   6.468   3.145   1.528  0.1181  0.0685 -0.7838
 3102WAT     H1 9825   6.478   3.147   1.432 -0.0032 -3.1243 -0.9479
 3102WAT     H2 9826   6.373   3.147   1.541  0.1306  0.3052 -0.7249
 3103WAT      O 9827   2.240   0.750   5.338  0.2197 -0.1412 -0.7595
 3103WAT     H1 9828   2.184   0.816   5.377  0.6329  1.1591 -2.2440
 3103WAT     H2 9829   2.230   0.673   5.394 -1.9292  0.4889 -0.1921
 3104WAT      O 9830   3.266   2.462   4.402 -0.3357  0.2962  0.1833
 3104WAT     H1 9831   3.196   2.481   4.465  0.5601  2.9486  0.4919
 3104WAT     H2 9832   3.347   2.481   4.449  0.6104 -1.8858 -0.4455
 3105WAT      O 9833   2.851   2.218   0.162  0.0766  0.0366  0.2842
 3105WAT     H1 9834   2.793   2.143   0.176 -0.4218  0.1551 -0.9968
 3105WAT     H2 9835   2.938   2.180   0.154 -0.4432 -0.7467 -2.8330
 3106WAT      O 9836   5.064   3.259   4.966  0.2123 -0.5931  0.2716
 3106WAT     H1 9837   5.093   3.349   4.975 -2.4988  0.3206  0.9755
 3106WAT     H2 9838   5.095   3.231   4.880  1.9495  0.6335  0.4631
 3107WAT      O 9839   5.239   2.940   5.981  0.0123 -0.1517  0.2620
 3107WAT     H1 9840   5.268   2.893   6.059 -1.3885 -0.0351  0.8891
 3107WAT     H2 9841   5.152   2.903   5.961 -0.1964  0.6950 -0.4902
 3108WAT      O 9842   4.377   4.758   3.602  0.1630  0.6010  0.5871
 3108WAT     H1 9843   4.336   4.735   3.685 -0.8726 -0.1986 -0.1231
 3108WAT     H2 9844   4.413   4.675   3.570  0.1768  0.8190  0.0319
 3109WAT      O 9845   3.924   2.771   1.717 -0.4345 -0.0833  0.1559
 3109WAT     H1 9846   3.981   2.705   1.678  0.0505  0.2098  0.3712
 3109WAT     H2 9847   3.978   2.815   1.782 -0.9023  0.1984  0.3594
 3110WAT      O 9848   4.967   2.632   1.947 -0.6896 -0.1587  0.1356
 3110WAT     H1 9849   5.011   2.583   2.017 -0.5556 -1.1279 -0.6163
 3110WAT     H2 9850   4.918   2.566   1.898 -1.5572  0.6526 -0.1199
 3111WAT      O 9851   4.310   1.842   1.029  0.2081  0.0441  0.0459
 3111WAT     H1 9852   4.380   1.906   1.018 -0.7928  1.0865 -0.4645
 3111WAT     H2 9853   4.323   1.780   0.956  1.5526 -0.7284  0.9077
 3112WAT      O 9854   5.132   4.065   5.472 -0.2670  0.7413 -0.3154
 3112WAT     H1 9855   5.161   4.156   5.472 -1.2867  1.0880  0.6995
 3112WAT     H2 9856   5.212   4.014   5.479  0.1919  1.6553  1.7924
 3113WAT      O 9857   6.168   3.504   3.035 -0.1452  0.1856 -0.4157
 3113WAT     H1 9858   6.157   3.413   3.062 -1.0825  0.3644 -0.1474
 3113WAT     H2 9859   6.132   3.555   3.108  0.6929  0.7861 -0.4041
 3114WAT      O 9860   6.058   3.494   2.213 -0.2913 -0.3410  0.3272
 3114WAT     H1 9861   6.050   3.414   2.264 -0.5366 -0.5708 -0.0625
 3114WAT     H2 9862   6.152   3.513   2.212 -0.2663 -0.4446  0.6931
 3115WAT      O 9863   4.473   2.680   0.355  0.1003  0.1137  0.2170
 3115WAT     H1 9864   4.482   2.766   0.312  0.4501  0.1569  0.3734
 3115WAT     H2 9865   4.551   2.673   0.410  0.0683 -0.3047  0.2102
 3116WAT      O 9866   3.383   3.789   5.901  0.0396 -0.4612 -0.1318
 3116WAT     H1 9867   3.356   3.738   5.824 -1.6901  0.2526 -0.0253
 3116WAT     H2 9868   3.457   3.739   5.936 -0.5273 -2.0022 -0.9839
 3117WAT      O 9869   5.097   3.152   2.563  0.6843  0.0407  0.0469
 3117WAT     H1 9870   5.122   3.060   2.553  0.2521 -0.2921  1.7123
 3117WAT     H2 9871   5.150   3.199   2.498  1.7660 -1.2405 -0.0291
 3118WAT      O 9872   2.387   0.535   1.829  0.4206 -0.3484 -0.2262
 3118WAT     H1 9873   2.443   0.595   1.780  0.1386  0.4853  0.4519
 3118WAT     H2 9874   2.298   0.570   1.819  0.2287 -0.7348  0.0546
 3119WAT      O 9875   2.871   2.212   1.875  0.2511  0.0219 -0.6017
 3119WAT     H1 9876   2.829   2.159   1.943  0.1268 -0.0032 -0.6969
 3119WAT     H2 9877   2.927   2.150   1.828  0.2557  0.0165 -0.5891
 3120WAT      O 9878   5.205   1.243   1.807  0.1147  0.4019 -0.3861
 3120WAT     H1 9879   5.258   1.215   1.881  0.5277  0.4609 -0.6558
 3120WAT     H2 9880   5.147   1.168   1.789 -0.9946  0.8996  0.8876
 3121WAT      O 9881   3.845   4.018   2.234  1.0675  0.3841  0.2639
 3121WAT     H1 9882   3.839   4.040   2.141  0.2650  0.2882  0.2883
 3121WAT     H2 9883   3.844   4.103   2.279 -0.5076  0.3931  0.2763
 3122WAT      O 9884   4.064   2.765   2.393  0.2191 -0.0983  0.2799
 3122WAT     H1 9885   4.151   2.805   2.389  0.8488 -1.5008 -1.6614
 3122WAT     H2 9886   4.080   2.673   2.414 -0.7130 -0.5008 -0.6265
 3123WAT      O 9887   4.763   4.427   0.474  0.6838  0.0246 -0.7973
 3123WAT     H1 9888   4.854   4.400   0.485  0.8884 -0.6043 -3.2525
 3123WAT     H2 9889   4.732   4.445   0.562  3.2667  0.5577  0.0839
 3124WAT      O 9890   2.828   2.907   4.756  0.3956  0.5831 -0.1639
 3124WAT     H1 9891   2.733   2.909   4.742  0.4883  0.6931 -0.8338
 3124WAT     H2 9892   2.849   2.992   4.794 -0.0020 -0.0884  1.6271
 3125WAT      O 9893   4.688   2.693   5.976 -0.0540  0.3679 -0.1431
 3125WAT     H1 9894   4.655   2.782   5.990 -0.7993  0.3114 -1.3469
 3125WAT     H2 9895   4.762   2.704   5.917  0.3033  0.2457  0.2801
 3126WAT      O 9896   4.666   1.295   0.601 -0.5328  0.5930 -0.2207
 3126WAT     H1 9897   4.701   1.372   0.557  0.1848 -0.1777 -1.0516
 3126WAT     H2 9898   4.712   1.292   0.684 -1.5921  1.8287  0.4448
 3127WAT      O 9899   3.709   2.376   3.148 -0.0313 -0.4195  0.5404
 3127WAT     H1 9900   3.679   2.434   3.078  0.5559 -1.6491 -0.7670
 3127WAT     H2 9901   3.798   2.353   3.123  0.2591 -0.7185  1.8145
 3128WAT      O 9902   1.223   1.594   1.904  0.3663  0.2010 -0.0502
 3128WAT     H1 9903   1.195   1.508   1.873  1.7396 -0.9423  1.7145
 3128WAT     H2 9904   1.149   1.651   1.886 -1.2073 -1.6836  0.1655
 3129WAT      O 9905   4.707   3.500   0.053  0.1717  0.2280  0.4226
 3129WAT     H1 9906   4.714   3.550   0.134  0.1052  0.9289  0.0059
 3129WAT     H2 9907   4.681   3.412   0.081 -2.9845  1.2237  1.0001
 3130WAT      O 9908   4.648   3.408   0.951  0.5825 -0.4731 -0.2594
 3130WAT     H1 9909   4.725   3.465   0.964  0.7242 -0.8892  0.8240
 3130WAT     H2 9910   4.604   3.445   0.875  1.0455  0.6799  0.0128
 3131WAT      O 9911   4.270   0.637   5.610  0.1596  0.5537  0.1766
 3131WAT     H1 9912   4.365   0.628   5.625  0.4789  2.2569 -0.5982
 3131WAT     H2 9913   4.251   0.727   5.635 -1.4446 -0.0141  1.1018
 3132WAT      O 9914   4.384   1.081   5.513  0.1766  0.8615 -0.1542
 3132WAT     H1 9915   4.423   0.993   5.514 -1.7125 -0.0276  0.8833
 3132WAT     H2 9916   4.457   1.140   5.531  1.2622 -0.6178  0.5102
 3133WAT      O 9917   4.960   2.775   5.275  0.7142  0.0713  0.2449
 3133WAT     H1 9918   5.009   2.839   5.223  2.0506 -0.8297  0.3491
 3133WAT     H2 9919   4.918   2.719   5.210  0.8833  0.0640  0.1410
 3134WAT      O 9920   4.265   1.916   1.377  0.4155  0.2716 -0.2336
 3134WAT     H1 9921   4.219   1.868   1.446 -1.6773  1.2200 -0.8899
 3134WAT     H2 9922   4.319   1.850   1.334 -0.6911 -1.0278  0.2886
 3135WAT      O 9923   5.887   2.291   0.100 -0.2544  0.1152  0.0561
 3135WAT     H1 9924   5.959   2.354   0.103  1.5286 -1.7639 -0.4866
 3135WAT     H2 9925   5.817   2.338   0.054  1.4643  1.2929 -1.5663
 3136WAT      O 9926   2.273   2.928   5.923 -0.0327  0.4701 -0.1776
 3136WAT     H1 9927   2.221   2.983   5.864 -0.7876 -0.1832 -0.1372
 3136WAT     H2 9928   2.229   2.842   5.921  0.1688  0.3208  1.0069
 3137WAT      O 9929   5.107   4.092   1.736  0.5130 -0.2565 -0.7849
 3137WAT     H1 9930   5.043   4.031   1.771  0.9277  0.1153  0.7271
 3137WAT     H2 9931   5.123   4.063   1.646 -1.9695 -0.1786 -1.3211
 3138WAT      O 9932   2.326   1.023   0.963  0.5086 -0.3945  0.0916
 3138WAT     H1 9933   2.314   1.049   1.055 -1.9275 -1.7571  0.2602
 3138WAT     H2 9934   2.330   1.106   0.915 -2.5840  0.4411  1.0413
 3139WAT      O 9935   6.554   3.318   0.828  0.4597 -0.0805 -0.3017
 3139WAT     H1 9936   6.604   3.323   0.747  0.2599  1.0201 -0.3784
 3139WAT     H2 9937   6.541   3.410   0.853 -1.0675 -0.3507 -0.0191
 3140WAT      O 9938   4.180   2.667   0.934 -0.0203  0.0431  0.4609
 3140WAT     H1 9939   4.143   2.746   0.893  2.5599  1.0206 -0.1912
 3140WAT     H2 9940   4.197   2.608   0.861 -0.8162 -0.6702  0.8269
 3141WAT      O 9941   3.625   3.012   1.766 -0.8472  0.6562 -0.9546
 3141WAT     H1 9942   3.620   2.959   1.846 -1.2338  1.0237 -0.7272
 3141WAT     H2 9943   3.638   2.949   1.696  3.2504  0.5246 -0.2912
 3142WAT      O 9944   6.280   2.558   0.290 -0.3616 -0.3510 -0.1441
 3142WAT     H1 9945   6.299   2.646   0.255 -0.3981 -0.7086 -1.1060
 3142WAT     H2 9946   6.352   2.540   0.350  0.4858 -0.2796 -1.1096
 3143WAT      O 9947   2.641   2.495   5.051  0.3479 -0.1126  0.0123
 3143WAT     H1 9948   2.566   2.536   5.094  0.2369  0.1303 -0.4041
 3143WAT     H2 9949   2.703   2.477   5.122  0.8713  1.7679  0.1000
 3144WAT      O 9950   5.565   4.449   2.187 -0.0604  0.6242 -0.4736
 3144WAT     H1 9951   5.592   4.423   2.099  0.7422 -0.2735  0.0225
 3144WAT     H2 9952   5.479   4.409   2.199  0.8930 -1.3876  0.0506
 3145WAT      O 9953   1.448   2.992   5.421  0.0654  0.3045  0.2548
 3145WAT     H1 9954   1.496   2.921   5.379  1.1343  1.9044 -1.3928
 3145WAT     H2 9955   1.389   3.025   5.354  0.2239  1.5300  0.6935
 3146WAT      O 9956   6.374   1.032   1.937  0.1016 -0.1195  0.2079
 3146WAT     H1 9957   6.451   0.986   1.972 -1.0901 -0.5688  2.4299
 3146WAT     H2 9958   6.304   0.967   1.939 -0.8048  0.8176  0.0857
 3147WAT      O 9959   5.325   2.680   2.418  0.1861 -0.0682  0.3536
 3147WAT     H1 9960   5.347   2.708   2.329  1.0326  0.1779  0.6382
 3147WAT     H2 9961   5.230   2.665   2.415  0.5423 -2.5870 -1.3049
 3148WAT      O 9962   5.271   3.722   5.742 -0.3857 -0.5397 -0.0105
 3148WAT     H1 9963   5.196   3.674   5.707  1.0853 -1.1731 -2.6164
 3148WAT     H2 9964   5.314   3.757   5.664  1.2761  0.9792  1.4958
 3149WAT      O 9965   4.104   1.387   0.282 -0.8278  0.4563  0.3029
 3149WAT     H1 9966   4.112   1.476   0.314  2.7358 -0.1143  1.3373
 3149WAT     H2 9967   4.102   1.332   0.360 -2.9567 -0.4744 -0.3090
 3150WAT      O 9968   3.793   0.793   0.531 -0.5779 -0.2205  0.1286
 3150WAT     H1 9969   3.837   0.731   0.590  0.7465  0.2556 -0.3032
 3150WAT     H2 9970   3.815   0.761   0.444 -2.0324 -0.5822 -0.1260
 3151WAT      O 9971   4.231   3.063   1.601 -0.0552 -0.4820 -0.3790
 3151WAT     H1 9972   4.166   3.095   1.664  0.0842  0.6622 -0.7890
 3151WAT     H2 9973   4.185   3.065   1.517  0.8446  1.5809 -0.8886
 3152WAT      O 9974   5.057   4.314   4.326  0.1691 -0.1429 -0.0896
 3152WAT     H1 9975   5.062   4.409   4.322  0.9734 -0.2155 -1.1942
 3152WAT     H2 9976   5.105   4.284   4.249 -0.6515 -1.4309 -0.1247
 3153WAT      O 9977   5.471   2.192   0.616 -0.4261  0.0040  0.3245
 3153WAT     H1 9978   5.465   2.164   0.525  0.8294 -1.7793  0.7369
 3153WAT     H2 9979   5.478   2.287   0.612 -0.8829 -0.0001 -1.3952
 3154WAT      O 9980   5.064   1.528   5.736  0.1384 -0.0675  0.4050
 3154WAT     H1 9981   5.036   1.596   5.797  1.2785 -0.1509  1.0554
 3154WAT     H2 9982   5.035   1.446   5.776  0.4018 -0.0812  0.5766
 3155WAT      O 9983   5.273   2.689   1.637 -0.1758 -0.7321  0.1143
 3155WAT     H1 9984   5.178   2.686   1.645 -0.1965 -1.0142 -0.2092
 3155WAT     H2 9985   5.289   2.735   1.555 -0.0049  0.3897  0.7679
 3156WAT      O 9986   3.568   1.873   2.138 -0.0304  0.0749  0.0933
 3156WAT     H1 9987   3.552   1.938   2.069 -1.0710 -0.7826 -0.5019
 3156WAT     H2 9988   3.491   1.816   2.136 -0.0135 -0.0804  1.8592
 3157WAT      O 9989   2.624   1.030   1.133  0.3336 -0.3845  0.3798
 3157WAT     H1 9990   2.666   0.990   1.209 -0.6255 -2.0640  0.0714
 3157WAT     H2 9991   2.558   1.088   1.170  0.2368 -0.7817  0.8389
 3158WAT      O 9992   4.310   1.680   4.965 -0.2874 -0.1207 -0.1877
 3158WAT     H1 9993   4.359   1.720   5.037 -0.6558  0.0635 -0.0353
 3158WAT     H2 9994   4.272   1.755   4.919  1.2760 -0.1065 -1.5691
 3159WAT      O 9995   4.400   2.420   4.656  0.0264 -0.0891  0.2049
 3159WAT     H1 9996   4.319   2.425   4.707 -0.2953 -2.3575 -0.0126
 3159WAT     H2 9997   4.400   2.501   4.604 -2.2564 -0.1818 -0.0291
 3160WAT      O 9998   5.589   2.539   1.443  0.0488 -0.7818  0.2524
 3160WAT     H1 9999   5.606   2.611   1.383 -0.8922  2.5603  3.5879
 3160WAT     H210000   5.499   2.512   1.422  0.9693 -2.3629 -2.1299
 3161WAT      O10001   1.481   3.249   6.010 -0.0003  0.2875 -0.5531
 3161WAT     H110002   1.441   3.318   5.957 -1.9586  1.0822  1.7465
 3161WAT     H210003   1.411   3.221   6.069  1.2886 -2.4008 -0.1397
 3162WAT      O10004   5.263   4.043   4.684  0.2189  0.6582 -0.0909
 3162WAT     H110005   5.182   3.993   4.675 -0.5875  1.7215  0.9885
 3162WAT     H210006   5.261   4.104   4.610  0.1293  0.5715 -0.1607
 3163WAT      O10007   4.463   4.105   5.741 -0.0109 -0.1517 -0.1451
 3163WAT     H110008   4.547   4.083   5.700  0.5609 -1.7641  1.7533
 3163WAT     H210009   4.398   4.063   5.685  0.3038  1.6803 -2.0297
 3164WAT      O10010   4.796   2.494   0.160 -0.6013 -0.1259 -0.3996
 3164WAT     H110011   4.830   2.410   0.127  1.0500  0.8778 -1.4091
 3164WAT     H210012   4.793   2.551   0.083  0.0937  1.2710  0.5546
 3165WAT      O10013   4.130   3.374   1.894  0.3193  0.0146 -0.5850
 3165WAT     H110014   4.115   3.448   1.952  0.0524 -2.2009  2.4634
 3165WAT     H210015   4.100   3.298   1.945  0.8845 -2.2233 -3.3593
 3166WAT      O10016   3.641   2.095   2.635  0.1858  0.2458 -0.2156
 3166WAT     H110017   3.633   2.012   2.587 -1.4139 -0.1720  0.6915
 3166WAT     H210018   3.727   2.128   2.611  0.4798 -1.2168 -1.3442
 3167WAT      O10019   4.871   1.640   1.094  0.1523 -0.2977 -0.7224
 3167WAT     H110020   4.941   1.622   1.031 -0.0469 -1.1212 -0.7193
 3167WAT     H210021   4.808   1.569   1.081 -0.0476 -0.2929  0.1869
 3168WAT      O10022   2.764   1.243   2.181 -0.3135  0.1950 -0.2960
 3168WAT     H110023   2.670   1.255   2.167 -0.5132 -2.0132 -1.3200
 3168WAT     H210024   2.803   1.323   2.148 -1.7394  0.4646 -1.4623
 3169WAT      O10025   4.314   1.389   0.042 -0.8862 -0.2882 -0.4302
 3169WAT     H110026   4.254   1.401   0.115  1.0185 -1.5716  1.4638
 3169WAT     H210027   4.352   1.302   0.056  1.0723  0.2761 -1.7715
 3170WAT      O10028   4.219   1.348   5.816  0.0684 -0.1147 -0.1784
 3170WAT     H110029   4.267   1.372   5.895 -0.8558 -1.2897  0.7783
 3170WAT     H210030   4.127   1.364   5.837 -0.2875 -1.3735 -0.6393
 3171WAT      O10031   4.609   0.477   1.048  0.1401  0.0906 -0.0645
 3171WAT     H110032   4.521   0.485   1.010 -0.0122 -0.2603  0.2136
 3171WAT     H210033   4.598   0.502   1.139  0.3183 -0.0259 -0.0108
 3172WAT      O10034   4.281   1.434   5.106 -0.2465  0.0522  0.1091
 3172WAT     H110035   4.316   1.489   5.037  0.1315  0.2049  0.4204
 3172WAT     H210036   4.208   1.484   5.142  1.4811  1.4180  1.9183
 3173WAT      O10037   4.657   1.890   5.313 -0.2761 -0.1667 -0.1281
 3173WAT     H110038   4.676   1.865   5.404  0.3958 -1.0514 -0.4935
 3173WAT     H210039   4.621   1.979   5.320 -1.7150 -0.7978  1.1349
 3174WAT      O10040   4.001   2.546   5.080  0.1762  0.2705 -0.1703
 3174WAT     H110041   4.064   2.618   5.072  1.8671 -1.0728  0.4037
 3174WAT     H210042   4.015   2.493   5.002  0.5776 -0.6304  0.4929
 3175WAT      O10043   5.933   5.061   2.032  0.0623  0.0312 -0.2383
 3175WAT     H110044   5.847   5.057   2.073  0.1238  0.5462 -0.0642
 3175WAT     H210045   5.914   5.073   1.939 -0.0546 -0.0089 -0.2199
 3176WAT      O10046   3.692   2.520   1.174 -0.2974  0.3123  0.2139
 3176WAT     H110047   3.781   2.488   1.190 -0.1082  0.1079 -1.1795
 3176WAT     H210048   3.636   2.463   1.228  0.3759  0.2338  0.8416
 3177WAT      O10049   4.252   2.665   5.103  0.2974  0.8533  0.5339
 3177WAT     H110050   4.283   2.575   5.098 -0.1101  0.7465 -0.0628
 3177WAT     H210051   4.329   2.718   5.081  0.1021  0.5901 -0.8474
 3178WAT      O10052   4.984   3.130   0.500 -0.6858  0.4364  0.0978
 3178WAT     H110053   4.999   3.040   0.530  4.5091  0.3649 -1.7314
 3178WAT     H210054   4.976   3.122   0.405 -1.9836  1.8441  0.0484
 3179WAT      O10055   4.674   3.588   4.629 -0.1094  0.1682  0.0573
 3179WAT     H110056   4.583   3.593   4.657 -1.0486  0.1185 -2.6513
 3179WAT     H210057   4.718   3.538   4.697 -2.3530 -0.8052  0.8817
 3180WAT      O10058   2.314   2.596   5.597 -0.1504 -0.0575 -0.0126
 3180WAT     H110059   2.299   2.558   5.511 -2.1442  0.5174  0.0233
 3180WAT     H210060   2.336   2.687   5.579 -0.8887  0.1448  0.0806
 3181WAT      O10061   4.265   3.277   5.216 -0.2116  0.1762 -0.2464
 3181WAT     H110062   4.171   3.260   5.209 -0.3065  1.0049 -1.0803
 3181WAT     H210063   4.292   3.302   5.128  0.6805  0.5379  0.1149
 3182WAT      O10064   4.586   1.016   4.635  0.1571 -0.0897 -0.0352
 3182WAT     H110065   4.563   0.994   4.544 -0.2565 -0.1820  0.0906
 3182WAT     H210066   4.632   1.099   4.629 -1.0354  0.5796 -0.2012
 3183WAT      O10067   4.431   1.738   5.210  0.5811 -0.0944 -0.1352
 3183WAT     H110068   4.446   1.645   5.226  2.3804  0.0290 -0.9349
 3183WAT     H210069   4.506   1.782   5.251 -0.6187  1.0831  0.8849
 3184WAT      O10070   1.881   1.082   4.046  0.6297  0.5161 -0.3419
 3184WAT     H110071   1.848   1.008   4.096  0.9663  0.6363  0.0678
 3184WAT     H210072   1.809   1.108   3.990  0.8401 -0.7860 -1.2598
 3185WAT      O10073   0.957   5.654   4.157 -0.2085 -0.1476 -0.3252
 3185WAT     H110074   0.966   5.562   4.132 -0.2065 -1.1183  2.7259
 3185WAT     H210075   0.908   5.651   4.240 -0.7049  2.6675 -0.4170
 3186WAT      O10076   6.229   4.426   0.361  0.7130 -0.0327  0.5287
 3186WAT     H110077   6.170   4.476   0.417 -1.1166 -0.1872 -1.1558
 3186WAT     H210078   6.211   4.457   0.272  2.2252 -1.0463 -0.1833
 3187WAT      O10079   6.194   5.241   4.094  0.1977  0.6208  0.8000
 3187WAT     H110080   6.251   5.164   4.094  0.2989  0.6789  2.0460
 3187WAT     H210081   6.112   5.210   4.057  0.3566  0.0079  0.9526
 3188WAT      O10082   4.555   0.964   0.074 -0.4646 -0.0000  0.3937
 3188WAT     H110083   4.556   1.004  -0.013  2.0250 -1.3161 -0.2718
 3188WAT     H210084   4.508   0.882   0.061 -1.0944  0.3246  0.5795
 3189WAT      O10085   3.714   2.184   1.508 -0.3131 -0.0359 -0.3481
 3189WAT     H110086   3.684   2.094   1.520  2.1176 -0.8875 -0.2538
 3189WAT     H210087   3.757   2.184   1.423 -0.6561  1.1708 -0.5437
 3190WAT      O10088   4.229   5.341   5.475 -0.0725 -0.0929 -0.5598
 3190WAT     H110089   4.276   5.422   5.457  1.4909 -0.5051  1.3661
 3190WAT     H210090   4.149   5.369   5.520  1.6794  0.3871  2.5342
 3191WAT      O10091   4.585   0.043   0.375  0.9639  0.0241  0.7748
 3191WAT     H110092   4.506   0.094   0.359  1.5232  1.1912  1.6530
 3191WAT     H210093   4.587  -0.020   0.302 -0.6759  0.0572  0.6573
 3192WAT      O10094   3.852   2.325   3.544 -0.5726 -0.3028 -0.3480
 3192WAT     H110095   3.898   2.312   3.627 -1.5967 -1.9595  0.0095
 3192WAT     H210096   3.878   2.413   3.515 -1.0261  0.7877  2.2583
 3193WAT      O10097   2.870   1.436   5.540  0.2634 -0.2726 -0.1105
 3193WAT     H110098   2.869   1.348   5.578 -1.8583 -0.7212 -1.0089
 3193WAT     H210099   2.931   1.430   5.467  0.1709 -1.0197 -0.1383
 3194WAT      O10100   6.099   2.799   5.657 -0.1033 -0.0253  0.2444
 3194WAT     H110101   6.163   2.753   5.712 -1.1797 -1.3154  0.4533
 3194WAT     H210102   6.130   2.785   5.567 -0.7606 -1.7533  0.2570
 3195WAT      O10103   1.807   1.109   5.038 -0.3870 -0.1795  0.4357
 3195WAT     H110104   1.818   1.108   4.943  0.2300 -0.2535  0.5071
 3195WAT     H210105   1.718   1.075   5.052 -1.0171  1.1428 -0.1821
 3196WAT      O10106   3.962   5.688   2.648 -0.4046  0.4156 -0.3471
 3196WAT     H110107   4.006   5.634   2.713  0.7770 -1.1635 -2.3375
 3196WAT     H210108   3.912   5.626   2.596 -0.3451  1.4531 -1.6854
 3197WAT      O10109   3.492   6.069   5.164 -0.5673 -0.1304 -0.2119
 3197WAT     H110110   3.441   6.122   5.103 -0.3066 -0.1698 -0.4676
 3197WAT     H210111   3.456   5.981   5.157 -1.7682  0.2284  1.0597
 3198WAT      O10112   4.749   6.087   3.621 -0.4718 -0.0710  0.3833
 3198WAT     H110113   4.701   6.092   3.704  0.3202 -1.0640  0.9246
 3198WAT     H210114   4.725   6.167   3.575 -0.1093  1.0458  2.0206
 3199WAT      O10115   5.564   4.857   3.656  0.2896 -0.2279  0.0393
 3199WAT     H110116   5.509   4.925   3.617 -1.1773 -1.1923  0.3755
 3199WAT     H210117   5.638   4.905   3.693  0.1955  0.9980 -1.2755
 3200WAT      O10118   5.519   1.603   1.264  0.2025  0.0716  0.1946
 3200WAT     H110119   5.501   1.650   1.182  0.0538  1.0615  0.7821
 3200WAT     H210120   5.482   1.516   1.250 -0.3264  0.4093 -0.5846
 3201WAT      O10121   3.397   4.880   4.738 -0.2314  1.1356  0.0804
 3201WAT     H110122   3.419   4.797   4.694 -0.9204 -0.5587  2.7143
 3201WAT     H210123   3.306   4.895   4.715 -0.5114  0.3998  0.6662
 3202WAT      O10124   4.369   2.555   1.587 -0.0167 -0.6036  0.0097
 3202WAT     H110125   4.449   2.608   1.592 -0.7815  0.5061  1.3556
 3202WAT     H210126   4.391   2.475   1.634  0.5412 -0.6288 -0.2905
 3203WAT      O10127   3.854   2.717   5.502  0.2376  0.7980  0.7042
 3203WAT     H110128   3.808   2.714   5.417  0.6698  0.7306  0.4719
 3203WAT     H210129   3.946   2.702   5.480  0.1371 -0.9498  1.3732
 3204WAT      O10130   4.353   0.962   1.507  0.2748 -0.2248  0.2368
 3204WAT     H110131   4.441   0.939   1.534  0.5993 -3.4261 -2.8781
 3204WAT     H210132   4.298   0.891   1.540 -0.5764  0.0224 -0.6075
 3205WAT      O10133   5.749   5.803   3.353 -0.0227  0.1542 -0.1655
 3205WAT     H110134   5.787   5.771   3.271 -0.7316 -0.4839 -0.2517
 3205WAT     H210135   5.814   5.782   3.420 -0.3092 -1.1564 -0.2729
 3206WAT      O10136   4.114   6.007   4.844 -0.0625  0.7199 -0.5713
 3206WAT     H110137   4.174   6.079   4.863 -0.0668  0.5429  0.1634
 3206WAT     H210138   4.027   6.043   4.859 -0.3177  1.5265 -3.4058
 3207WAT      O10139   4.958   0.882   4.578 -0.0295 -0.7855 -0.0989
 3207WAT     H110140   4.929   0.926   4.658 -1.4327 -3.8319  1.2085
 3207WAT     H210141   4.884   0.891   4.517  0.2733 -0.1284 -0.3807
 3208WAT      O10142   5.764   2.216   5.737 -0.4819  0.1483 -0.1652
 3208WAT     H110143   5.779   2.163   5.658  0.1971 -0.8745  0.6124
 3208WAT     H210144   5.852   2.238   5.768 -0.7503  1.0049  0.0114
 3209WAT      O10145   3.132   5.548   5.149 -0.0500 -0.1508 -0.1635
 3209WAT     H110146   3.215   5.584   5.181  0.0358 -0.6690  0.2200
 3209WAT     H210147   3.153   5.458   5.124 -0.4636 -0.2401 -0.2051
 3210WAT      O10148   4.473   2.137   0.757 -0.1229  0.1084  0.1675
 3210WAT     H110149   4.407   2.088   0.708  0.2455 -0.6021  0.3703
 3210WAT     H210150   4.552   2.131   0.704 -0.6853  2.7344 -1.1493
 3211WAT      O10151   3.645   2.601   4.802 -0.0897  0.1049  0.0070
 3211WAT     H110152   3.657   2.520   4.852 -0.9958  0.3106  0.5834
 3211WAT     H210153   3.714   2.598   4.736  0.2700 -0.8462  0.3946
 3212WAT      O10154   4.857   1.404   5.533 -0.0103  0.0325 -0.1836
 3212WAT     H110155   4.910   1.440   5.462 -0.3372  1.7622  0.3932
 3212WAT     H210156   4.909   1.420   5.612 -0.0521 -1.0566  0.0821
 3213WAT      O10157   4.298   0.258   5.634  0.3517  0.3775  0.2511
 3213WAT     H110158   4.313   0.164   5.627 -0.3682  0.2672  0.1157
 3213WAT     H210159   4.306   0.276   5.728  0.8975  0.2516  0.2282
 3214WAT      O10160   3.612   1.280   4.256  0.4105  0.6018 -0.1369
 3214WAT     H110161   3.689   1.233   4.225  0.1708 -0.7515  1.2065
 3214WAT     H210162   3.545   1.212   4.267 -0.2844  1.4118  0.8271
 3215WAT      O10163   3.216   1.679   1.319  0.1251  0.1042 -0.6058
 3215WAT     H110164   3.193   1.587   1.337 -2.3387  0.8671  0.5700
 3215WAT     H210165   3.286   1.698   1.381  1.5449 -1.2749 -1.7041
 3216WAT      O10166   6.205   4.649   3.410  0.1725 -0.7218  0.5867
 3216WAT     H110167   6.169   4.595   3.339  0.4104 -1.2857  0.8908
 3216WAT     H210168   6.258   4.715   3.365  0.7936 -1.4314  0.2638
 3217WAT      O10169   6.500   2.325   1.440 -0.3802 -0.2453 -0.1116
 3217WAT     H110170   6.422   2.289   1.481 -0.4082  1.6819  1.6780
 3217WAT     H210171   6.529   2.395   1.499  1.5589  0.4214 -1.7176
 3218WAT      O10172   2.328   5.748   5.150 -0.1972 -1.0181  0.5312
 3218WAT     H110173   2.413   5.740   5.106  0.6677  0.1252  1.8967
 3218WAT     H210174   2.320   5.668   5.201  0.5595 -0.6931  1.1798
 3219WAT      O10175   4.211   5.892   3.811 -0.0566 -0.3332 -0.5431
 3219WAT     H110176   4.228   5.984   3.833 -0.7773 -0.3154 -0.0315
 3219WAT     H210177   4.254   5.879   3.726 -1.7234  1.0742 -1.6769
 3220WAT      O10178   4.943   2.718   4.271 -0.0385  0.4790 -0.1293
 3220WAT     H110179   4.863   2.694   4.225 -0.1412  0.6934 -0.0619
 3220WAT     H210180   5.011   2.719   4.204 -0.3053  1.4158 -0.3966
 3221WAT      O10181   5.024   2.013   5.632  0.1943  0.5145 -0.3308
 3221WAT     H110182   5.019   1.956   5.709  1.0633 -1.8442 -1.9078
 3221WAT     H210183   4.935   2.015   5.598 -0.1010  1.2052  0.4279
 3222WAT      O10184   3.280   0.748   2.369 -0.4141 -0.7095  0.6633
 3222WAT     H110185   3.194   0.726   2.333  0.4079 -0.9190 -1.2867
 3222WAT     H210186   3.332   0.774   2.294  0.5432  1.9109  2.1019
 3223WAT      O10187   3.831   0.104   4.346 -0.1731 -0.4085 -0.6563
 3223WAT     H110188   3.779   0.025   4.333 -1.0208  0.0269  0.0130
 3223WAT     H210189   3.767   0.175   4.345  0.2651  0.0480  1.1532
 3224WAT      O10190   3.422   5.146   3.969 -0.8848 -0.0224 -0.2201
 3224WAT     H110191   3.452   5.209   4.034 -0.9121 -0.8854  0.6559
 3224WAT     H210192   3.447   5.061   4.005 -0.3303 -0.5025 -1.6382
 3225WAT      O10193   4.801   1.328   3.103 -0.5363  0.3799  0.3963
 3225WAT     H110194   4.731   1.309   3.165  0.3511 -0.7783  1.0953
 3225WAT     H210195   4.786   1.268   3.030 -0.1121 -0.0884  0.6876
 3226WAT      O10196   2.887   0.606   4.088  0.6571  0.2536 -0.5672
 3226WAT     H110197   2.889   0.561   4.004  1.7662  0.3860 -0.6392
 3226WAT     H210198   2.936   0.687   4.072  0.1828  0.6599 -0.0004
 3227WAT      O10199   5.074   0.653   3.313  0.5308  0.1440  0.2333
 3227WAT     H110200   5.082   0.695   3.227 -2.5452  1.2955  0.3627
 3227WAT     H210201   5.091   0.723   3.376 -1.7863  0.6017  0.4546
 3228WAT      O10202   5.432   5.299   3.601  0.0501 -0.6193  0.0139
 3228WAT     H110203   5.466   5.220   3.558  1.9072  0.3945 -0.4794
 3228WAT     H210204   5.336   5.290   3.595  0.2260 -2.4057 -0.7829
 3229WAT      O10205   4.446   1.633   2.571 -0.1302  0.7760  0.1129
 3229WAT     H110206   4.531   1.641   2.530  0.0308  0.3793  0.3683
 3229WAT     H210207   4.430   1.539   2.577 -0.4193  0.8393  0.3968
 3230WAT      O10208   4.717   0.466   3.126  0.3720 -0.3231  0.3650
 3230WAT     H110209   4.691   0.558   3.127  0.2257 -0.3665  0.8263
 3230WAT     H210210   4.639   0.420   3.096  0.0167 -0.4134  1.3608
 3231WAT      O10211   3.273   1.918   4.269  0.7249  0.4209  0.1106
 3231WAT     H110212   3.292   2.002   4.312 -0.4494  1.4799 -1.3573
 3231WAT     H210213   3.300   1.853   4.333  0.8149  1.9152  1.6761
 3232WAT      O10214   1.735   0.812   4.870  0.0602 -0.3994  0.0148
 3232WAT     H110215   1.642   0.835   4.870 -0.3006 -1.7535  0.1462
 3232WAT     H210216   1.780   0.896   4.873 -1.1644  0.2753  0.5605
 3233WAT      O10217   5.177   2.261   3.776  0.0216  0.1851  0.0625
 3233WAT     H110218   5.247   2.283   3.713 -1.8759 -0.0003 -2.2471
 3233WAT     H210219   5.119   2.338   3.775 -1.6472 -1.0324 -0.7984
 3234WAT      O10220   0.144   4.568   3.575  0.8893 -0.1943 -0.8207
 3234WAT     H110221   0.154   4.476   3.601 -0.2337  0.0589  0.6426
 3234WAT     H210222   0.122   4.565   3.482 -0.3145 -1.4959 -0.5227
 3235WAT      O10223   6.050   6.019   1.642 -0.1032 -0.2320 -0.2117
 3235WAT     H110224   5.961   6.002   1.672  0.0253 -2.7702 -1.0303
 3235WAT     H210225   6.045   6.010   1.547  1.1300 -1.0126 -0.2218
 3236WAT      O10226   3.861   6.080   4.871 -0.1390  0.0342  0.2756
 3236WAT     H110227   3.790   6.037   4.824 -0.2994 -0.0625  0.6009
 3236WAT     H210228   3.826   6.094   4.959 -0.3533  1.4828 -0.0148
 3237WAT      O10229   0.953   5.356   3.556  0.7970  0.0387 -0.6078
 3237WAT     H110230   1.009   5.291   3.600  0.9208  0.4404 -0.1599
 3237WAT     H210231   0.952   5.329   3.465 -0.9592 -1.9221 -0.0805
 3238WAT      O10232   4.818   1.211   2.067 -0.1089 -0.0141  0.7119
 3238WAT     H110233   4.802   1.303   2.088 -1.8010 -0.5854  2.2419
 3238WAT     H210234   4.777   1.199   1.981  0.9939  0.8424  0.0331
 3239WAT      O10235   5.053   4.652   3.804 -0.5284  0.3320 -0.3578
 3239WAT     H110236   5.062   4.747   3.792 -0.0592  0.6598  2.0603
 3239WAT     H210237   4.962   4.633   3.779 -0.9713  1.6272  0.1736
 3240WAT      O10238   4.428   2.111   2.995 -0.1493  0.0365 -0.3561
 3240WAT     H110239   4.522   2.094   2.990 -0.4268 -1.2252 -2.3670
 3240WAT     H210240   4.404   2.142   2.908 -1.2980  2.2951  0.6871
 3241WAT      O10241   3.327   0.240   4.131  0.4683 -0.3591 -0.2290
 3241WAT     H110242   3.264   0.303   4.096  0.0985 -1.3066 -1.3352
 3241WAT     H210243   3.412   0.275   4.106  0.4736  1.3023  1.8864
 3242WAT      O10244   5.355   0.085   4.000  0.3157  0.3056  0.0296
 3242WAT     H110245   5.300   0.123   3.931  0.5677  0.2928 -0.1805
 3242WAT     H210246   5.321   0.122   4.081  0.2060  0.5542 -0.1282
 3243WAT      O10247   4.952   0.364   3.086  0.6135  0.4373 -0.0432
 3243WAT     H110248   4.934   0.301   3.016 -1.1862  1.5421 -0.6363
 3243WAT     H210249   4.866   0.395   3.113  1.3779  1.3060  1.4894
 3244WAT      O10250   6.746   1.377   4.657 -0.7526  0.2840  0.0274
 3244WAT     H110251   6.691   1.388   4.735  0.4058  1.5970  0.7182
 3244WAT     H210252   6.691   1.409   4.585 -1.1120  1.0216  0.6114
 3245WAT      O10253   4.039   0.583   5.961  0.3902  0.6013  0.4450
 3245WAT     H110254   4.051   0.677   5.978  1.5856  0.4246  0.6795
 3245WAT     H210255   4.020   0.546   6.047  2.2741  0.3151  0.7905
 3246WAT      O10256   4.300   5.195   3.854 -0.6953  0.3678 -0.2613
 3246WAT     H110257   4.309   5.290   3.842  1.1564  0.1383 -1.0783
 3246WAT     H210258   4.260   5.186   3.940  2.3698  1.8926  1.5107
 3247WAT      O10259   3.952   1.760   5.798 -0.1483 -0.2216 -0.3417
 3247WAT     H110260   3.989   1.847   5.782 -0.3331 -0.1880 -0.5963
 3247WAT     H210261   3.861   1.767   5.770 -0.3215 -0.3355  0.1837
 3248WAT      O10262   4.129   1.142   0.064 -0.5918 -0.1003 -0.3539
 3248WAT     H110263   4.198   1.148   0.130 -2.1773  0.1616  1.3776
 3248WAT     H210264   4.119   1.232   0.033 -1.4541  0.2595  0.8649
 3249WAT      O10265   3.719   1.760   2.941  0.0076 -0.1383  0.0318
 3249WAT     H110266   3.787   1.721   2.996 -0.4463 -0.8128  0.1333
 3249WAT     H210267   3.708   1.849   2.975  1.0129  0.0627 -0.1555
 3250WAT      O10268   3.609   4.967   5.251  0.1638  0.0401 -0.0782
 3250WAT     H110269   3.523   4.989   5.288 -0.0514  0.7051 -0.9350
 3250WAT     H210270   3.636   4.889   5.299 -0.8513 -0.0932  0.3119
 3251WAT      O10271   5.871   1.679   3.803  0.4253 -0.0418  0.6118
 3251WAT     H110272   5.897   1.679   3.711 -0.5225 -3.6549  0.1706
 3251WAT     H210273   5.918   1.605   3.841 -1.4862 -0.5212  2.2438
 3252WAT      O10274   5.822   0.528   2.134 -0.0597  0.0743  0.1799
 3252WAT     H110275   5.757   0.581   2.181  0.4060  2.1806 -1.3753
 3252WAT     H210276   5.774   0.449   2.108 -1.6444  0.9870  0.1890
 3253WAT      O10277   4.058   1.536   5.251 -0.1732  0.5631  0.4135
 3253WAT     H110278   3.971   1.505   5.227 -0.6999  2.6381 -0.5910
 3253WAT     H210279   4.043   1.585   5.333 -0.0676  1.3610 -0.0360
 3254WAT      O10280   2.782   1.793   3.876 -0.2490 -0.2093  0.8301
 3254WAT     H110281   2.781   1.698   3.863 -1.1394 -0.2510  1.1420
 3254WAT     H210282   2.698   1.823   3.842 -0.4407  0.3244  1.7429
 3255WAT      O10283   5.621   2.184   4.766 -0.4471 -0.2800 -0.1457
 3255WAT     H110284   5.633   2.268   4.721 -0.2221  1.1581  2.4103
 3255WAT     H210285   5.527   2.169   4.763 -0.4839  0.0288 -0.6943
 3256WAT      O10286   3.754   0.150   3.910  0.1998  0.2355 -0.1797
 3256WAT     H110287   3.774   0.066   3.951  1.3235  0.6575  0.1958
 3256WAT     H210288   3.690   0.129   3.842 -0.0881 -0.8022  0.3829
 3257WAT      O10289   4.604   1.496   4.931  0.5390 -0.4495 -0.4088
 3257WAT     H110290   4.643   1.583   4.920  1.7990 -0.9855 -0.4224
 3257WAT     H210291   4.622   1.474   5.022  0.6781 -0.9074 -0.5486
 3258WAT      O10292   4.353   1.919   3.857  0.5405 -0.2429  0.1674
 3258WAT     H110293   4.275   1.901   3.910  0.2752  1.4905  0.4147
 3258WAT     H210294   4.343   2.010   3.829  1.6852 -0.4931 -1.1754
 3259WAT      O10295   5.120   3.530   5.622 -0.8989 -0.1069 -0.6798
 3259WAT     H110296   5.207   3.533   5.583 -0.8657 -0.7288 -0.6635
 3259WAT     H210297   5.063   3.573   5.558 -0.5062  0.7364 -0.4716
 3260WAT      O10298   4.454   0.712   2.921  0.6193  0.5804  0.1690
 3260WAT     H110299   4.452   0.652   2.846  0.7754 -0.4536  0.9830
 3260WAT     H210300   4.547   0.719   2.943  0.6629  1.5793 -0.2652
 3261WAT      O10301   5.931   1.313   3.368 -0.9033  0.2222 -0.4865
 3261WAT     H110302   5.920   1.395   3.320 -0.9022  1.2467  1.2035
 3261WAT     H210303   5.845   1.294   3.405 -0.7203 -0.1204 -0.2255
 3262WAT      O10304   4.038   1.306   3.132 -0.3105 -0.3470  0.4005
 3262WAT     H110305   4.087   1.350   3.201  0.1013  2.8900 -1.7570
 3262WAT     H210306   3.947   1.334   3.144 -0.4545 -0.7690  0.3371
 3263WAT      O10307   4.214   0.118   2.730 -0.3694  0.0030  0.2082
 3263WAT     H110308   4.226   0.156   2.643  0.6840 -1.1154 -0.1691
 3263WAT     H210309   4.284   0.157   2.783 -1.0771  0.7677  0.6018
 3264WAT      O10310   6.460   0.245   3.089 -0.3054  0.4266  0.3695
 3264WAT     H110311   6.379   0.243   3.140 -1.3204  0.5237 -1.1710
 3264WAT     H210312   6.530   0.241   3.155 -1.5482 -0.6801  1.6905
 3265WAT      O10313   4.074   0.970   4.155 -0.2757  0.0243 -0.1241
 3265WAT     H110314   4.163   0.969   4.189 -0.6169 -0.3256  0.8024
 3265WAT     H210315   4.065   0.887   4.108  0.3581  0.7291 -1.5431
 3266WAT      O10316   4.459   1.457   5.331  0.2277 -0.1355  0.3799
 3266WAT     H110317   4.394   1.427   5.395  1.2211 -0.1937  1.3913
 3266WAT     H210318   4.417   1.443   5.246 -1.0438 -0.2464  1.0002
 3267WAT      O10319   4.853   1.970   4.111 -0.3440  0.3196 -0.1921
 3267WAT     H110320   4.922   1.949   4.047  0.1787  0.0786  0.4461
 3267WAT     H210321   4.779   1.916   4.085  0.4397 -1.1104  0.4381
 3268WAT      O10322   3.437   5.976   4.064 -0.0289 -0.0182 -0.3784
 3268WAT     H110323   3.374   5.998   3.995 -1.9650 -1.7578  0.7286
 3268WAT     H210324   3.406   6.025   4.140 -0.1471 -0.9924  0.2157
 3269WAT      O10325   3.046   0.261   3.310 -0.3070  0.2860 -0.0737
 3269WAT     H110326   2.969   0.236   3.360 -1.4374  0.9410 -1.4273
 3269WAT     H210327   3.069   0.348   3.342 -1.1599  0.7964 -0.8141
 3270WAT      O10328   4.580   0.127   2.484  0.1893 -0.3113  0.0562
 3270WAT     H110329   4.670   0.107   2.461  1.0113  1.3639  1.5300
 3270WAT     H210330   4.575   0.223   2.480 -1.4510 -0.3593  0.2128
 3271WAT      O10331   2.473   5.433   2.200  0.4265 -0.0277  0.6590
 3271WAT     H110332   2.389   5.476   2.211 -0.2730 -0.9854 -0.5482
 3271WAT     H210333   2.465   5.352   2.251 -0.6687 -1.6753 -1.8847
 3272WAT      O10334   3.786   0.057   1.934 -0.1222 -0.2802 -0.1355
 3272WAT     H110335   3.861   0.040   1.878  1.2861  0.8365  1.2855
 3272WAT     H210336   3.779   0.153   1.936 -1.6805 -0.3610 -0.3317
 3273WAT      O10337   5.538   5.185   4.276 -0.0631 -0.0205  0.5466
 3273WAT     H110338   5.528   5.236   4.195  0.7174 -0.6485  0.0364
 3273WAT     H210339   5.486   5.106   4.261 -0.3000  0.0771  0.8505
 3274WAT      O10340   4.994   0.668   2.480  0.0297  0.2877  0.5901
 3274WAT     H110341   4.916   0.627   2.518 -0.1453  0.8318  0.8296
 3274WAT     H210342   5.063   0.603   2.490 -0.5756 -0.5446 -0.3888
 3275WAT      O10343   5.286   4.704   2.774 -0.0439  0.1610  0.1328
 3275WAT     H110344   5.290   4.610   2.790 -1.7048  0.0669  0.0950
 3275WAT     H210345   5.296   4.712   2.679  0.9285  0.1077  0.2147
 3276WAT      O10346   5.281   0.534   1.697 -0.3381 -0.7663 -0.3070
 3276WAT     H110347   5.375   0.554   1.695 -0.1037 -1.8451 -0.9631
 3276WAT     H210348   5.275   0.443   1.670 -1.5358 -0.9260  0.4234
 3277WAT      O10349   5.278   1.614   1.766 -0.6141  0.1525 -0.7802
 3277WAT     H110350   5.349   1.589   1.826 -0.7577 -1.6180 -1.3007
 3277WAT     H210351   5.317   1.607   1.679 -1.3744 -0.6563 -1.0646
 3278WAT      O10352   5.678   4.637   1.397 -0.0200  0.1370 -0.3979
 3278WAT     H110353   5.592   4.653   1.436 -0.4786 -0.2945 -1.2285
 3278WAT     H210354   5.715   4.566   1.450 -0.1261  0.3867  0.0208
 3279WAT      O10355   5.181   1.242   3.688  0.0621  0.5112 -0.1068
 3279WAT     H110356   5.091   1.272   3.680 -0.8435 -1.7077  0.8699
 3279WAT     H210357   5.205   1.262   3.779  0.4897  0.8927 -0.2979
 3280WAT      O10358   4.468   1.713   4.707  0.1224 -0.4501  0.5780
 3280WAT     H110359   4.426   1.632   4.736 -2.1260 -0.4912 -2.2407
 3280WAT     H210360   4.439   1.779   4.770 -0.7260 -1.2948  1.0946
 3281WAT      O10361   4.323   5.375   1.180  0.2596 -0.1491  0.4541
 3281WAT     H110362   4.332   5.282   1.201 -0.6676  0.0733  2.0245
 3281WAT     H210363   4.412   5.405   1.163  0.5397 -1.3765 -0.4180
 3282WAT      O10364   3.927   0.448   2.925  0.2603 -0.1628  0.8531
 3282WAT     H110365   3.952   0.497   3.004  0.6235  0.0825  0.5899
 3282WAT     H210366   4.007   0.444   2.873  0.3491 -1.4020  1.0521
 3283WAT      O10367   4.584   5.460   1.157  0.4725  0.4638 -0.4310
 3283WAT     H110368   4.645   5.425   1.092 -0.8704 -2.1037 -0.4720
 3283WAT     H210369   4.591   5.400   1.231 -1.8967  0.0756 -0.4301
 3284WAT      O10370   3.907   0.846   1.302  0.3797  0.5613 -0.7487
 3284WAT     H110371   3.962   0.768   1.307  0.7146  0.8243 -0.2664
 3284WAT     H210372   3.847   0.838   1.377 -1.5704 -0.7042 -2.3349
 3285WAT      O10373   4.005   5.902   3.482 -0.2623 -0.7311 -0.6904
 3285WAT     H110374   3.922   5.906   3.434 -0.1084  0.6117 -0.8820
 3285WAT     H210375   3.985   5.944   3.566  0.1668 -0.5980 -0.6561
 3286WAT      O10376   0.221   4.835   2.026  0.1063  0.0924  0.6091
 3286WAT     H110377   0.205   4.877   2.110 -1.8362 -1.1100  0.9020
 3286WAT     H210378   0.186   4.896   1.961  0.4433  0.4453  0.7560
 3287WAT      O10379   4.276   1.153   3.681  0.1562 -0.5139 -0.0550
 3287WAT     H110380   4.249   1.078   3.628 -0.5803 -0.1765 -0.1728
 3287WAT     H210381   4.342   1.118   3.741  0.9144 -0.9293 -1.1100
 3288WAT      O10382   2.747   5.908   3.382 -0.6100 -0.1659  0.5442
 3288WAT     H110383   2.711   5.873   3.300 -0.7071 -0.1736  0.5901
 3288WAT     H210384   2.681   5.970   3.413  0.0096  0.8217 -0.0608
 3289WAT      O10385   4.416   0.595   3.295  0.6749  0.2320  0.1803
 3289WAT     H110386   4.442   0.648   3.371  0.3313  1.3612 -0.4646
 3289WAT     H210387   4.466   0.632   3.222  0.4260 -0.3454 -0.2858
 3290WAT      O10388   2.947   0.961   2.748 -0.5351 -0.4536  0.0045
 3290WAT     H110389   2.897   1.036   2.715 -1.4565 -0.2574  1.7091
 3290WAT     H210390   3.038   0.981   2.725 -0.8073  1.0295  0.1123
 3291WAT      O10391   4.329   0.700   0.356 -0.3821 -0.2947 -0.7368
 3291WAT     H110392   4.321   0.795   0.347 -4.6369 -0.5008 -1.4740
 3291WAT     H210393   4.396   0.675   0.293 -0.7207  2.0378 -2.1623
 3292WAT      O10394   3.988   0.344   3.835 -0.1412 -0.6890 -0.1248
 3292WAT     H110395   3.987   0.286   3.911  0.4044  0.5949  0.9005
 3292WAT     H210396   3.926   0.414   3.857  1.3340  0.6447 -0.0542
 3293WAT      O10397   6.726   5.971   3.016 -0.3448 -0.5097  0.2698
 3293WAT     H110398   6.811   6.001   3.049  0.4340 -2.1381 -0.1711
 3293WAT     H210399   6.691   6.047   2.968  0.6462  0.3216  0.8145
 3294WAT      O10400   4.685   0.865   5.257  0.1314 -0.8120 -0.0157
 3294WAT     H110401   4.716   0.828   5.339  0.5286 -0.0399  0.1912
 3294WAT     H210402   4.685   0.792   5.195 -0.2931 -1.4243  0.6967
 3295WAT      O10403   3.276   6.085   3.863 -0.2606  0.3187 -0.0760
 3295WAT     H110404   3.243   6.148   3.799 -2.1153 -1.4446 -0.9979
 3295WAT     H210405   3.197   6.041   3.895  0.8635 -0.7213  1.3929
 3296WAT      O10406   5.329   1.425   5.090 -0.3753 -0.1105 -0.1458
 3296WAT     H110407   5.290   1.476   5.160  1.8232  0.5204  0.7044
 3296WAT     H210408   5.304   1.334   5.110 -0.9187  0.2100  0.6682
 3297WAT      O10409   2.578   0.354   1.900 -0.4418  0.2462  0.0089
 3297WAT     H110410   2.528   0.434   1.912  1.2881  1.3955 -0.0276
 3297WAT     H210411   2.630   0.347   1.980 -1.8629 -1.8733  0.8359
 3298WAT      O10412   5.425   5.557   4.048 -0.1819 -0.7293 -0.4668
 3298WAT     H110413   5.394   5.612   4.120  0.9964 -1.4259  0.6234
 3298WAT     H210414   5.397   5.603   3.969 -0.4054  0.7305  0.4207
 3299WAT      O10415   4.835   5.805   4.842  0.1990  0.1771 -0.2475
 3299WAT     H110416   4.815   5.712   4.840  0.5629  0.0994 -0.6894
 3299WAT     H210417   4.919   5.811   4.796  0.3286  0.6830  0.0560
 3300WAT      O10418   4.254   5.288   3.365  0.7236  0.1712  0.5484
 3300WAT     H110419   4.184   5.342   3.331  1.7469  1.1715 -0.0087
 3300WAT     H210420   4.280   5.331   3.447  1.1708  0.2238  0.3822
 3301WAT      O10421   4.163   1.791   4.018 -0.1087  0.0533 -0.0670
 3301WAT     H110422   4.218   1.807   4.095 -0.1868 -1.0999  0.2447
 3301WAT     H210423   4.076   1.775   4.053 -0.2976  0.2306 -0.4486
 3302WAT      O10424   3.897   1.971   3.685 -0.8064  0.2658 -0.6857
 3302WAT     H110425   3.845   1.966   3.605  0.2202 -0.2888 -1.3539
 3302WAT     H210426   3.923   1.880   3.702 -0.6711  0.4365  0.0461
 3303WAT      O10427   5.833   2.525   2.199  0.2293 -0.4780 -0.2208
 3303WAT     H110428   5.838   2.612   2.159 -1.8361 -1.0060 -1.7853
 3303WAT     H210429   5.803   2.541   2.288  0.7829  0.4735 -0.1951
 3304WAT      O10430   5.016   1.314   2.369  0.6320  0.4886  0.4626
 3304WAT     H110431   5.051   1.232   2.334  0.2666  0.8089 -0.7036
 3304WAT     H210432   5.044   1.380   2.306 -2.1522  0.7454 -0.6267
 3305WAT      O10433   4.023   1.565   3.545  0.1800  0.6247  0.2255
 3305WAT     H110434   4.106   1.607   3.525  0.9476 -1.0855 -0.3971
 3305WAT     H210435   4.047   1.477   3.573 -1.5116 -1.1384 -3.2196
 3306WAT      O10436   5.208   2.533   4.619  0.6178 -0.1686 -0.0945
 3306WAT     H110437   5.269   2.480   4.567  1.4514  0.6446  0.0221
 3306WAT     H210438   5.264   2.595   4.665  0.0508 -1.6661  2.8183
 3307WAT      O10439   3.725   0.792   2.553  0.9510 -0.1665 -0.3103
 3307WAT     H110440   3.653   0.728   2.552  0.8256 -0.0241 -0.4424
 3307WAT     H210441   3.707   0.849   2.479  1.1583 -0.0805 -0.2939
 3308WAT      O10442   5.051   1.441   2.718  0.2102 -0.0311 -0.4562
 3308WAT     H110443   5.109   1.443   2.642  0.3292  1.5602 -0.3517
 3308WAT     H210444   5.099   1.489   2.786 -0.5359 -0.1190  0.1396
 3309WAT      O10445   6.180   1.557   3.181 -0.0854 -0.4346 -0.3372
 3309WAT     H110446   6.275   1.556   3.188 -0.0943  0.6981  0.3072
 3309WAT     H210447   6.160   1.643   3.145 -0.8835 -0.4368  0.0713
 3310WAT      O10448   3.917   2.582   3.587 -0.2112 -0.2933  0.6814
 3310WAT     H110449   3.934   2.675   3.572 -2.4984 -0.2192 -2.4845
 3310WAT     H210450   3.991   2.553   3.641  1.9370  2.7870 -0.2912
 3311WAT      O10451   4.656   1.249   3.820  0.1541 -0.0418 -0.0070
 3311WAT     H110452   4.647   1.156   3.842 -0.5920 -0.0826 -0.4612
 3311WAT     H210453   4.651   1.293   3.905  1.0147 -0.4386  0.2660
 3312WAT      O10454   5.001   1.187   2.801 -0.6098 -0.2112  0.0281
 3312WAT     H110455   5.046   1.173   2.885 -2.4905 -1.6091  0.8694
 3312WAT     H210456   5.023   1.277   2.777  1.3864 -0.3451  1.1201
 3313WAT      O10457   6.201   5.545   2.754 -0.0187  0.3035  0.6501
 3313WAT     H110458   6.160   5.468   2.794  0.0458  0.4673  1.0332
 3313WAT     H210459   6.231   5.514   2.668 -0.1301 -0.0573  0.7391
 3314WAT      O10460   5.074   5.984   4.100 -0.1282 -0.1244  0.3914
 3314WAT     H110461   5.100   6.075   4.085 -2.7062  0.3950 -1.6918
 3314WAT     H210462   4.993   5.991   4.151  0.3514 -1.3375  1.3594
 3315WAT      O10463   3.965   1.531   2.313 -0.5192  0.1681  0.1874
 3315WAT     H110464   3.897   1.465   2.307 -0.2471  0.0261 -2.4438
 3315WAT     H210465   4.047   1.482   2.315 -0.3948  0.3892  0.8891
 3316WAT      O10466   4.230   3.087   4.490  0.1400 -0.3887  0.0320
 3316WAT     H110467   4.314   3.082   4.536  0.1318  1.8305  0.3782
 3316WAT     H210468   4.174   3.139   4.547 -0.3326  1.2337 -1.8020
 3317WAT      O10469   4.664   0.554   1.941  0.2928  0.3489  0.1172
 3317WAT     H110470   4.718   0.579   1.866  1.0892 -0.8109  0.2879
 3317WAT     H210471   4.628   0.469   1.917 -0.8589  0.7513  0.3394
 3318WAT      O10472   4.019   0.600   5.111  0.1017  0.8074 -0.2652
 3318WAT     H110473   4.087   0.630   5.171 -0.3614  1.8139 -0.2061
 3318WAT     H210474   3.953   0.560   5.167  0.7734 -0.4577 -0.3526
 3319WAT      O10475   3.543   1.403   1.864  0.5308 -0.1699  0.4135
 3319WAT     H110476   3.472   1.407   1.800 -1.6075  0.0101  2.6265
 3319WAT     H210477   3.580   1.491   1.865  0.5718 -0.1745 -0.5345
 3320WAT      O10478   4.923   1.886   4.359  0.6905  0.0169 -0.2013
 3320WAT     H110479   4.891   1.918   4.274  1.4584 -1.8444 -1.2688
 3320WAT     H210480   5.013   1.858   4.341  0.7440 -0.7503  1.1309
 3321WAT      O10481   5.149   1.816   5.243 -0.0712  0.4333 -0.5434
 3321WAT     H110482   5.185   1.786   5.326  0.1196  2.4964  0.1701
 3321WAT     H210483   5.057   1.789   5.246  0.6886 -2.6309 -1.2822
 3322WAT      O10484   4.518   6.003   3.760  0.0473 -0.5557 -0.7043
 3322WAT     H110485   4.488   5.990   3.670 -0.2991  1.4330 -0.9116
 3322WAT     H210486   4.452   6.060   3.800  0.6856 -0.6392  0.5253
 3323WAT      O10487   2.519   1.612   4.100 -0.7883 -0.0212  0.4732
 3323WAT     H110488   2.544   1.536   4.153 -0.0597  0.0227  0.2029
 3323WAT     H210489   2.566   1.600   4.018  0.7674  1.5997  1.0386
 3324WAT      O10490   5.337   2.344   4.456 -0.5946  0.2558  0.5266
 3324WAT     H110491   5.257   2.346   4.403 -0.9128  0.1675  0.9962
 3324WAT     H210492   5.408   2.346   4.392 -0.9723 -0.0527  0.0892
 3325WAT      O10493   5.180   0.177   3.800 -0.5098  0.2585 -0.2433
 3325WAT     H110494   5.202   0.264   3.768  0.0291  1.1709  2.3790
 3325WAT     H210495   5.161   0.126   3.721  4.1821  1.3002 -2.3794
 3326WAT      O10496   4.416   2.336   5.866  0.1919  0.0560 -0.0702
 3326WAT     H110497   4.421   2.423   5.906 -1.1789  0.0588  0.1262
 3326WAT     H210498   4.494   2.291   5.898  0.0501  0.6565  1.1970
 3327WAT      O10499   2.401   1.078   2.008 -0.0632 -0.2545 -0.3342
 3327WAT     H110500   2.316   1.095   2.048 -0.5251  1.4120 -1.8751
 3327WAT     H210501   2.381   1.027   1.930  0.5097 -1.0335  0.0163
 3328WAT      O10502   3.677   1.025   2.252  0.3710 -0.4351  0.5984
 3328WAT     H110503   3.683   1.112   2.212 -0.3590 -0.6354  0.0293
 3328WAT     H210504   3.622   1.038   2.329  2.6581  0.1690  2.2419
 3329WAT      O10505   4.932   1.288   5.849 -0.3513 -0.0251  0.0097
 3329WAT     H110506   4.880   1.234   5.789  1.1195 -3.9637  1.9301
 3329WAT     H210507   4.914   1.252   5.935  2.3760  1.2330  1.2120
 3330WAT      O10508   0.208   0.171   3.964  0.0697  0.7478 -0.0703
 3330WAT     H110509   0.273   0.182   4.033 -0.1330  1.3363  0.0336
 3330WAT     H210510   0.248   0.210   3.886 -0.4594  1.8375  0.1821
 3331WAT      O10511   5.534   3.212   4.278 -0.6675 -0.0454 -0.0889
 3331WAT     H110512   5.590   3.167   4.342 -0.2708  0.9345  0.2724
 3331WAT     H210513   5.450   3.221   4.322 -0.5306  0.2164  0.1211
 3332WAT      O10514   4.928   6.119   0.326  0.3286 -0.5058 -0.5188
 3332WAT     H110515   4.869   6.052   0.359 -1.0981  0.1001 -1.6974
 3332WAT     H210516   4.900   6.200   0.370  1.5789 -0.5201  0.3708
 3333WAT      O10517   5.489   5.889   3.405  0.2985 -0.2722 -0.2304
 3333WAT     H110518   5.575   5.861   3.371  0.3268 -1.3661  0.6624
 3333WAT     H210519   5.473   5.973   3.363  1.9850  0.1414 -0.1406
 3334WAT      O10520   4.848   3.472   5.492 -0.0519 -0.7720  0.2141
 3334WAT     H110521   4.895   3.556   5.491 -1.7762  0.2619  1.0111
 3334WAT     H210522   4.908   3.411   5.534  1.7572 -0.3095 -1.5081
 3335WAT      O10523   5.737   5.000   0.643 -0.0699 -0.3814 -0.3655
 3335WAT     H110524   5.716   4.913   0.676 -0.2547 -1.1845 -2.4239
 3335WAT     H210525   5.780   4.983   0.559 -1.4034  1.5260 -1.5003
 3336WAT      O10526   5.928   0.584   2.409 -0.0405  0.5423 -0.8258
 3336WAT     H110527   5.880   0.578   2.326 -1.8253  3.6074 -0.1755
 3336WAT     H210528   5.933   0.678   2.427  2.5725  0.1191  1.3155
 3337WAT      O10529   5.627   0.271   2.149 -0.3780  0.0606 -0.2550
 3337WAT     H110530   5.680   0.257   2.228 -0.1084 -0.3397 -0.5027
 3337WAT     H210531   5.538   0.283   2.182 -0.1677  0.5429  0.1525
 3338WAT      O10532   4.241   5.155   4.638  1.3015 -0.2582 -0.0497
 3338WAT     H110533   4.193   5.230   4.605  0.8477 -1.2484 -1.7470
 3338WAT     H210534   4.179   5.083   4.635  1.5129 -0.6220  2.2095
 3339WAT      O10535   5.988   3.221   0.100 -0.3598  0.2013 -0.5149
 3339WAT     H110536   5.957   3.138   0.136  0.0267  0.8194  1.3910
 3339WAT     H210537   5.949   3.226   0.013 -0.3449 -1.9832 -0.7064
 3340WAT      O10538   3.063   1.421   1.753 -0.4915 -0.4729 -0.0201
 3340WAT     H110539   3.157   1.436   1.742 -0.2775 -1.2753  0.6111
 3340WAT     H210540   3.025   1.509   1.760  0.0266 -0.0877 -1.5809
 3341WAT      O10541   1.958   0.468   1.045  0.4032  0.4568 -0.3775
 3341WAT     H110542   1.898   0.521   1.098  0.3484  0.2854 -0.2673
 3341WAT     H210543   1.994   0.404   1.106  1.4727  1.1990 -0.2115
 3342WAT      O10544   2.683   5.963   0.992  0.2964  0.1142 -0.0498
 3342WAT     H110545   2.624   6.009   0.932  0.5863 -0.9473 -1.1782
 3342WAT     H210546   2.756   5.935   0.938  1.8245  1.3033  1.3097
 3343WAT      O10547   4.052   2.720   1.321 -0.4321  0.0066 -0.1091
 3343WAT     H110548   4.114   2.684   1.383  0.9236 -0.9665 -1.9203
 3343WAT     H210549   4.101   2.786   1.272 -0.7918 -0.6992 -1.5009
 3344WAT      O10550   4.519   2.465   0.952 -0.4262  0.4525  0.2455
 3344WAT     H110551   4.482   2.521   1.020 -0.3988 -1.4630  1.9272
 3344WAT     H210552   4.460   2.390   0.948  1.1704 -0.8625  0.2837
 3345WAT      O10553   5.949   0.135   1.989 -0.3833 -0.3396 -0.2507
 3345WAT     H110554   5.855   0.120   1.982 -0.5996 -0.1045  1.7532
 3345WAT     H210555   5.988   0.052   1.961 -1.0871  0.0427 -2.5529
 3346WAT      O10556   4.822   1.093   1.747  0.3704  0.0437  0.6470
 3346WAT     H110557   4.796   1.082   1.656  0.4583  2.2921  0.2974
 3346WAT     H210558   4.911   1.058   1.751 -0.4818 -2.2942  0.4839
 3347WAT      O10559   5.250   5.977   1.092 -0.0191  0.5207  0.1652
 3347WAT     H110560   5.217   5.932   1.170 -0.8299  0.9873  0.0977
 3347WAT     H210561   5.341   5.997   1.113  0.5372 -1.5939  0.0063
 3348WAT      O10562   5.154   1.604   2.500 -0.1215  0.9348  0.4211
 3348WAT     H110563   5.077   1.654   2.527 -0.5459  0.3300  0.3424
 3348WAT     H210564   5.157   1.614   2.405 -0.8714 -0.1272  0.2783
 3349WAT      O10565   3.382   0.027   2.510 -0.1492  0.2670 -0.4579
 3349WAT     H110566   3.475   0.006   2.518 -0.4911 -0.8363  1.2149
 3349WAT     H210567   3.360   0.071   2.592 -1.0123  0.9575 -1.0405
 3350WAT      O10568   4.781   1.935   2.048 -0.1708  0.0186 -0.3278
 3350WAT     H110569   4.713   1.990   2.087 -0.1526  1.1376 -1.8037
 3350WAT     H210570   4.734   1.859   2.014 -0.7366  0.8552 -1.4738
 3351WAT      O10571   3.980   0.783   2.258  0.5069 -0.3161  0.1306
 3351WAT     H110572   3.915   0.748   2.198 -1.2581  2.5357  0.1900
 3351WAT     H210573   3.931   0.803   2.338  1.9138  0.0101  0.9551
 3352WAT      O10574   3.962   0.439   3.244 -0.6197 -0.1130  0.2386
 3352WAT     H110575   3.872   0.471   3.236 -0.9700 -1.2643 -0.7632
 3352WAT     H210576   3.953   0.346   3.265  0.3510 -0.0967  0.7791
 3353WAT      O10577   5.166   1.750   2.008  0.1191 -0.7082  0.6387
 3353WAT     H110578   5.141   1.721   1.921  1.7457 -0.1269 -0.0711
 3353WAT     H210579   5.261   1.760   2.003  0.2500 -0.7135  2.5019
 3354WAT      O10580   3.533   1.450   2.745 -0.1463 -0.5944 -0.3652
 3354WAT     H110581   3.578   1.476   2.826  1.3841 -0.9096 -1.0770
 3354WAT     H210582   3.449   1.495   2.749  0.1029 -0.1930  1.1560
 3355WAT      O10583   4.049   2.489   2.270 -0.3960  0.2792 -0.6229
 3355WAT     H110584   4.144   2.491   2.270 -0.3775 -0.4900 -0.6828
 3355WAT     H210585   4.025   2.417   2.211 -1.0385  1.2044 -1.5300
 3356WAT      O10586   5.049   1.073   2.232 -0.8517 -0.2202 -0.3020
 3356WAT     H110587   4.969   1.105   2.192 -0.9200 -2.0837 -1.7371
 3356WAT     H210588   5.022   0.999   2.286 -0.2255 -0.1962  0.0603
 3357WAT      O10589   3.699   5.797   0.306  0.3089  0.1309  0.4414
 3357WAT     H110590   3.659   5.877   0.339 -2.1262 -0.5545 -0.5526
 3357WAT     H210591   3.628   5.732   0.309  2.0246 -1.8345  0.6565
 3358WAT      O10592   5.739   0.550   1.838  0.1906 -0.4145  0.6567
 3358WAT     H110593   5.720   0.550   1.932  0.5554  0.1393  0.7378
 3358WAT     H210594   5.662   0.589   1.798 -0.3973 -1.5631  0.6178
 3359WAT      O10595   5.076   6.027   2.167 -0.0830  0.2977 -0.5587
 3359WAT     H110596   5.009   5.960   2.180 -0.1983  0.6026  0.5435
 3359WAT     H210597   5.152   5.995   2.216  0.0913  0.6387 -0.6016
 3360WAT      O10598   6.166   1.119   3.019 -0.1889  0.2540  0.3991
 3360WAT     H110599   6.090   1.125   3.077 -0.1889  1.2805  0.3004
 3360WAT     H210600   6.226   1.059   3.064 -0.2028  0.9943  1.4299
 3361WAT      O10601   3.981   0.805   2.929  0.5481  0.3011 -0.0504
 3361WAT     H110602   4.035   0.749   2.984  1.5516  1.8860  0.6596
 3361WAT     H210603   3.998   0.894   2.961 -1.3524  0.9985 -0.7898
 3362WAT      O10604   4.139   1.042   0.671 -0.3204  0.0566  0.3328
 3362WAT     H110605   4.095   1.127   0.660 -0.6583  0.0227  1.2913
 3362WAT     H210606   4.157   1.037   0.765  0.2737 -0.6560  0.1868
 3363WAT      O10607   7.115   4.668   3.202  0.4110 -0.1426 -0.1013
 3363WAT     H110608   7.049   4.726   3.165 -1.3920 -0.3678  2.5274
 3363WAT     H210609   7.192   4.724   3.213 -0.2363  0.8739 -0.6289
 3364WAT      O10610   3.935   5.482   3.860 -0.0121  1.0238  0.6342
 3364WAT     H110611   3.956   5.554   3.801  0.9819 -0.3996 -0.8391
 3364WAT     H210612   4.014   5.469   3.911  0.1940  0.3286  0.1553
 3365WAT      O10613   3.690   5.881   0.619  0.5001  0.0368 -0.0791
 3365WAT     H110614   3.739   5.812   0.664  1.1960  1.7034  1.8854
 3365WAT     H210615   3.757   5.941   0.586 -0.1153  0.2401 -0.9880
 3366WAT      O10616   5.349   0.105   2.045  0.8390 -0.2688 -0.1345
 3366WAT     H110617   5.390   0.026   2.009  0.8017 -0.1767 -0.3837
 3366WAT     H210618   5.262   0.077   2.071  0.3069  0.0045 -1.5384
 3367WAT      O10619   4.759   2.821   1.841 -0.4461 -0.6639 -0.0785
 3367WAT     H110620   4.807   2.746   1.875  0.4180 -0.3979 -0.6592
 3367WAT     H210621   4.680   2.826   1.895 -0.4283 -1.8706  0.0780
 3368WAT      O10622   4.466   0.264   1.560  0.4941 -0.5973  0.2040
 3368WAT     H110623   4.442   0.340   1.506 -0.5248 -0.2669  1.0870
 3368WAT     H210624   4.453   0.189   1.502 -0.7314 -0.2583  0.0008
 3369WAT      O10625   3.085   6.006   5.985 -0.2553 -0.0266  0.2639
 3369WAT     H110626   3.037   5.955   5.920  0.0933  0.2006 -0.1722
 3369WAT     H210627   3.079   6.097   5.955 -2.1042  0.4191  1.7853
 3370WAT      O10628   4.541   0.065   2.201 -0.6901 -0.0252  0.0727
 3370WAT     H110629   4.584   0.059   2.287 -2.4000 -0.9499  0.9038
 3370WAT     H210630   4.448   0.063   2.220 -1.1577 -2.3248 -1.9026
 3371WAT      O10631   5.663   5.086   1.590 -0.3050  0.5544  0.4362
 3371WAT     H110632   5.717   5.012   1.560 -0.6799  0.4110  0.1162
 3371WAT     H210633   5.718   5.129   1.655 -0.5473 -0.6977  1.5003
 3372WAT      O10634   3.196   1.071   2.679  0.5790 -0.5757  0.0440
 3372WAT     H110635   3.256   0.997   2.675 -0.7631 -1.6521 -1.2657
 3372WAT     H210636   3.250   1.144   2.708  2.1859 -1.8141  0.2925
 3373WAT      O10637   5.398   0.818   2.262 -0.4521  0.0184  0.4299
 3373WAT     H110638   5.394   0.740   2.207 -0.4581  1.0677 -1.0984
 3373WAT     H210639   5.467   0.872   2.223 -1.4694  1.4583  0.5494
 3374WAT      O10640   4.637   0.075   1.155 -0.3181 -0.1275 -0.0537
 3374WAT     H110641   4.646  -0.015   1.122 -1.2345 -0.8422  1.5250
 3374WAT     H210642   4.632   0.129   1.076 -0.7759 -1.5725 -1.0650
 3375WAT      O10643   3.527   0.399   3.090  0.0668  0.2236  0.4544
 3375WAT     H110644   3.538   0.304   3.084 -0.2983  0.1936  0.2538
 3375WAT     H210645   3.435   0.414   3.069  0.0316  0.5890  0.8610
 3376WAT      O10646   6.088   4.714   1.306 -0.2593 -0.2467  0.3159
 3376WAT     H110647   6.121   4.689   1.220 -1.0455 -1.9089  0.4453
 3376WAT     H210648   6.078   4.809   1.302  3.2959  0.2711 -0.1348
 3377WAT      O10649   4.774   2.752   3.467  0.1683 -0.3181  0.0967
 3377WAT     H110650   4.868   2.760   3.477  0.2294 -1.7424  1.0055
 3377WAT     H210651   4.762   2.727   3.375  0.8597 -2.0241  0.4318
 3378WAT      O10652   5.667   5.523   3.196  0.2970 -0.0172  0.1393
 3378WAT     H110653   5.655   5.611   3.160  0.5967 -0.6379 -1.5635
 3378WAT     H210654   5.626   5.527   3.282 -2.4331  0.9811 -1.0747
 3379WAT      O10655   3.429   5.941   2.925 -0.0735  0.3246 -0.3325
 3379WAT     H110656   3.358   5.997   2.956  0.3496  0.7055 -0.0314
 3379WAT     H210657   3.442   5.967   2.834  1.1242  1.8085  0.2148
 3380WAT      O10658   5.312   2.236   5.583  0.2627  0.2705  0.0197
 3380WAT     H110659   5.367   2.302   5.625 -1.6661  1.5502  0.6501
 3380WAT     H210660   5.297   2.271   5.495  0.4328 -0.0742 -0.1489
 3381WAT      O10661   4.264   5.788   2.257  0.6449 -0.1411  0.0849
 3381WAT     H110662   4.278   5.769   2.164 -0.5460 -0.0788 -0.1204
 3381WAT     H210663   4.178   5.829   2.260  2.1574  3.2765  0.7827
 3382WAT      O10664   3.585   5.446   3.919  0.1498 -0.2067 -0.4944
 3382WAT     H110665   3.518   5.471   3.983  2.0825  0.4688  1.3848
 3382WAT     H210666   3.594   5.523   3.863 -0.5766 -0.2864 -0.7393
 3383WAT      O10667   4.876   6.014   1.498  0.5656  0.6086 -0.0724
 3383WAT     H110668   4.877   6.072   1.421  0.0088  0.2359 -0.3706
 3383WAT     H210669   4.955   5.960   1.488  0.0148 -0.0782 -0.9008
 3384WAT      O10670   3.787   1.493   0.598  0.5630  0.4274  0.0942
 3384WAT     H110671   3.761   1.519   0.510  0.3866  1.5193  0.4564
 3384WAT     H210672   3.708   1.452   0.635  1.1635 -1.7218 -0.8571
 3385WAT      O10673   6.798   0.709   2.792  0.4584  0.2815  0.0381
 3385WAT     H110674   6.841   0.762   2.859 -2.0567  0.7805  1.3701
 3385WAT     H210675   6.729   0.765   2.758  0.9320 -0.4056 -2.1846
 3386WAT      O10676   5.260   3.234   4.364  0.0784 -0.0772 -0.1633
 3386WAT     H110677   5.200   3.303   4.335 -1.0389 -0.5604  0.9176
 3386WAT     H210678   5.205   3.172   4.412  1.1132 -1.5347 -0.7415
 3387WAT      O10679   4.784   1.710   0.376 -0.3773  0.2410 -0.0935
 3387WAT     H110680   4.694   1.707   0.411 -0.3647 -2.0113 -0.1363
 3387WAT     H210681   4.839   1.703   0.454 -0.2773 -0.5834 -0.2388
 3388WAT      O10682   4.788   1.430   2.463  0.3926  0.3036 -0.6380
 3388WAT     H110683   4.735   1.354   2.483 -0.3880  0.7441 -1.0046
 3388WAT     H210684   4.870   1.394   2.429 -1.0080 -0.3825 -3.5761
 3389WAT      O10685   1.667   1.827   0.833  0.0719  0.0224 -0.0736
 3389WAT     H110686   1.723   1.886   0.884 -1.8195  1.1762  0.7731
 3389WAT     H210687   1.670   1.863   0.744  0.8003 -0.0548 -0.0930
 3390WAT      O10688   5.423   0.564   2.101  0.3459 -0.6531  0.2303
 3390WAT     H110689   5.410   0.485   2.153  1.5252 -1.6055 -0.8312
 3390WAT     H210690   5.342   0.575   2.052 -0.2031 -0.6130  1.1345
 3391WAT      O10691   2.384   6.098   2.936  0.2293 -0.3707 -0.6131
 3391WAT     H110692   2.416   6.163   3.000 -0.2051 -2.0249  1.3888
 3391WAT     H210693   2.313   6.143   2.890  0.7578  0.9816 -0.1568
 3392WAT      O10694   4.684   1.698   3.135  0.4358 -0.2283  0.5362
 3392WAT     H110695   4.646   1.675   3.051 -1.6883  0.1551  1.3228
 3392WAT     H210696   4.778   1.685   3.124  0.8148  3.4809 -3.1313
 3393WAT      O10697   4.644   0.929   5.644 -0.3294 -0.1771 -0.7326
 3393WAT     H110698   4.651   1.022   5.624 -0.2914 -0.3168 -1.4049
 3393WAT     H210699   4.585   0.925   5.719  0.6207  0.4709  0.0675
 3394WAT      O10700   1.594   4.674   2.403  0.3128  0.1608 -0.7599
 3394WAT     H110701   1.663   4.738   2.386  0.6725  0.2247  0.7933
 3394WAT     H210702   1.622   4.630   2.483 -2.0462  1.0450  0.6390
 3395WAT      O10703   3.708   0.048   0.988  0.0425 -0.1610 -0.5169
 3395WAT     H110704   3.796   0.016   0.971  1.3945  2.7063  0.4788
 3395WAT     H210705   3.674   0.072   0.902  0.6139 -0.3935 -0.8089
 3396WAT      O10706   4.701   1.359   4.072  0.8142 -0.2771 -0.5440
 3396WAT     H110707   4.720   1.444   4.034  1.3243 -0.0513  0.1771
 3396WAT     H210708   4.607   1.348   4.063  0.3523  1.4217  1.4138
 3397WAT      O10709   4.703   4.987   1.176  0.3442  0.2470  0.0272
 3397WAT     H110710   4.668   4.900   1.153 -1.6422  0.8612  0.5357
 3397WAT     H210711   4.648   5.016   1.248  1.8754  1.3799  0.7750
 3398WAT      O10712   4.917   3.892   1.752 -0.5775  0.3352 -0.7880
 3398WAT     H110713   4.863   3.827   1.796  0.5242 -0.2933 -0.3281
 3398WAT     H210714   4.929   3.857   1.663  1.0221 -0.7409 -0.1850
 3399WAT      O10715   2.780   1.739   3.547  0.1049  0.2297  0.3087
 3399WAT     H110716   2.765   1.751   3.641  1.4243  1.5460  0.3836
 3399WAT     H210717   2.856   1.681   3.543 -1.1213 -1.4276 -0.0017
 3400WAT      O10718   3.454   3.385   1.082  0.0503 -0.1464  0.4308
 3400WAT     H110719   3.389   3.332   1.129 -1.3356  0.3946 -0.7952
 3400WAT     H210720   3.435   3.475   1.107  0.2121  0.0342 -0.0756
 3401WAT      O10721   4.136   1.783   1.603 -0.2738  0.3938  0.4123
 3401WAT     H110722   4.077   1.707   1.606 -1.3301  1.1942  0.4109
 3401WAT     H210723   4.220   1.748   1.632  0.1150 -1.4917 -2.5589
 3402WAT      O10724   4.618   1.590   1.594  0.1506 -0.1068  0.1994
 3402WAT     H110725   4.653   1.528   1.531  0.2149 -0.0445  0.1735
 3402WAT     H210726   4.694   1.617   1.646  0.1003 -0.1470  0.2935
 3403WAT      O10727   4.714   4.817   2.930 -0.3455  0.4487  0.0627
 3403WAT     H110728   4.735   4.895   2.982 -1.0532  0.2349  0.6865
 3403WAT     H210729   4.778   4.818   2.859  0.8214  0.6030  1.0819
 3404WAT      O10730   4.889   2.063   5.023  0.6618 -0.7064 -0.1559
 3404WAT     H110731   4.964   2.110   5.059  1.8920 -2.6496  0.0096
 3404WAT     H210732   4.922   2.025   4.941  0.5207 -3.1556  0.8422
 3405WAT      O10733   3.355   5.518   5.943  0.3701 -0.1152 -0.1385
 3405WAT     H110734   3.314   5.525   6.029  0.1224 -0.9598 -0.1874
 3405WAT     H210735   3.354   5.608   5.909 -1.2356 -0.0706 -0.0464
 3406WAT      O10736   3.883   1.647   3.134 -0.5737 -0.1691 -0.0825
 3406WAT     H110737   3.972   1.680   3.144  0.1585 -1.6290 -1.4583
 3406WAT     H210738   3.852   1.635   3.224  0.8485 -0.2709  0.4144
 3407WAT      O10739   4.574   0.781   4.793  0.1038  0.2351  0.4612
 3407WAT     H110740   4.573   0.872   4.764  0.2325  0.1258  0.1055
 3407WAT     H210741   4.497   0.772   4.848 -0.6182  0.2386 -0.5132
 3408WAT      O10742   4.224   0.519   2.261  0.8503  0.1968  0.6985
 3408WAT     H110743   4.155   0.459   2.233 -0.1418  1.8268 -0.4506
 3408WAT     H210744   4.293   0.509   2.195  0.5528  0.5485  0.3350
 3409WAT      O10745   3.481   1.832   0.925  0.1617 -0.0737  0.2809
 3409WAT     H110746   3.564   1.876   0.908  0.6988 -1.0187  0.3611
 3409WAT     H210747   3.471   1.837   1.020 -1.0447  2.0491  0.1010
 3410WAT      O10748   6.824   0.356   2.341  0.4667 -0.1325 -0.4794
 3410WAT     H110749   6.740   0.330   2.305 -0.4573  1.1063  0.6845
 3410WAT     H210750   6.864   0.410   2.273  0.6256 -1.2113 -1.2790
 3411WAT      O10751   3.105   0.052   2.482  0.8030  0.1255 -0.2374
 3411WAT     H110752   3.200   0.038   2.490  0.5602 -0.6683  1.9056
 3411WAT     H210753   3.066  -0.028   2.516 -0.6448  1.1690  0.6813
 3412WAT      O10754   4.001   0.875   5.942 -0.1293 -0.0537 -0.4402
 3412WAT     H110755   3.995   0.873   5.847  1.3923  0.7497 -0.5818
 3412WAT     H210756   4.034   0.962   5.963  1.2099 -0.7767  0.6900
 3413WAT      O10757   4.913   5.564   3.206  0.3198 -0.5160  0.1979
 3413WAT     H110758   4.828   5.525   3.186  0.4406 -0.1102 -1.1910
 3413WAT     H210759   4.977   5.494   3.189  0.3838 -0.3147 -0.4309
 3414WAT      O10760   3.753   1.349   2.327 -0.1982  0.3262  0.3660
 3414WAT     H110761   3.697   1.296   2.269  0.5538 -0.9374  0.7582
 3414WAT     H210762   3.734   1.316   2.415 -0.2585  1.2391  0.7060
 3415WAT      O10763   4.570   2.168   2.023 -0.5818  0.6215 -0.0928
 3415WAT     H110764   4.557   2.153   1.930  0.6345 -0.8319 -0.0607
 3415WAT     H210765   4.492   2.129   2.064  0.1500 -1.2478 -0.3671
 3416WAT      O10766   6.141   4.585   0.821 -0.7192 -0.3512 -0.1826
 3416WAT     H110767   6.074   4.652   0.838  0.0532  0.6121 -0.7638
 3416WAT     H210768   6.172   4.559   0.908 -2.4466 -1.4779  0.1384
 3417WAT      O10769   5.497   0.859   2.654  0.2647  0.1114 -0.3250
 3417WAT     H110770   5.575   0.818   2.617  0.0442 -0.5398 -0.0671
 3417WAT     H210771   5.462   0.795   2.715  0.9579  1.3936  1.4858
 3418WAT      O10772   4.287   0.661   1.639 -0.0295  0.3234 -0.6001
 3418WAT     H110773   4.273   0.594   1.705  2.1003  2.1052  1.8722
 3418WAT     H210774   4.344   0.620   1.574 -1.4549 -1.2013 -0.9371
 3419WAT      O10775   2.712   0.043   5.987  0.1737  0.0004 -0.0929
 3419WAT     H110776   2.649   0.111   6.010  0.3170 -0.2997  1.2932
 3419WAT     H210777   2.659  -0.033   5.965 -0.0185  0.7119 -2.4162
 3420WAT      O10778   2.734   1.362   1.164 -0.3533  0.3010  0.1883
 3420WAT     H110779   2.733   1.354   1.260  1.2380  0.0020  0.2110
 3420WAT     H210780   2.814   1.412   1.146  0.4245 -1.3278 -1.0852
 3421WAT      O10781   4.139   1.066   0.951  0.6835 -0.1471  0.7397
 3421WAT     H110782   4.061   1.011   0.947  0.5883  0.0445 -0.7115
 3421WAT     H210783   4.131   1.113   1.034 -1.7164  1.2313 -0.1681
 3422WAT      O10784   5.510   1.449   4.049  0.4657  0.2676  0.6114
 3422WAT     H110785   5.420   1.482   4.044  0.9589  1.7667  0.9331
 3422WAT     H210786   5.553   1.488   3.972  0.9629 -0.0419  0.7289
 3423WAT      O10787   6.481   5.051   1.244  0.0134 -0.1555 -0.3239
 3423WAT     H110788   6.465   5.030   1.152 -2.0236 -0.0350 -0.0406
 3423WAT     H210789   6.438   5.136   1.257  0.4928 -0.0503  0.6852
 3424WAT      O10790   4.272   5.300   1.635 -0.1553 -0.0912 -0.3025
 3424WAT     H110791   4.338   5.360   1.600 -1.1914  1.6042  0.5463
 3424WAT     H210792   4.323   5.234   1.681  1.0422 -0.2574 -1.7658
 3425WAT      O10793   4.655   1.594   0.672 -0.1175  0.0703 -0.0394
 3425WAT     H110794   4.598   1.648   0.617 -1.0979 -0.7498  0.1494
 3425WAT     H210795   4.636   1.623   0.761  1.1849  1.1241 -0.0635
 3426WAT      O10796   4.715   1.916   1.711 -0.0892  0.3451  0.0106
 3426WAT     H110797   4.690   1.912   1.619 -0.4979 -1.7885  0.1437
 3426WAT     H210798   4.809   1.897   1.711 -0.3073 -0.8725  0.0556
 3427WAT      O10799   3.510   0.594   2.605  0.4652  0.2850  0.2034
 3427WAT     H110800   3.570   0.554   2.668  0.3830 -0.0250  0.0912
 3427WAT     H210801   3.479   0.520   2.552 -1.6719  0.0687  1.6054
 3428WAT      O10802   5.771   6.020   1.790  0.2099  0.2966  0.0255
 3428WAT     H110803   5.714   6.090   1.759 -1.5452  0.0339  2.3460
 3428WAT     H210804   5.786   6.041   1.883  1.9161 -0.9594  0.0788
 3429WAT      O10805   3.862   1.625   1.493  0.1300 -0.2481 -0.1721
 3429WAT     H110806   3.861   1.610   1.587  2.2353 -0.1572 -0.0754
 3429WAT     H210807   3.923   1.560   1.459 -2.2674 -1.7983 -1.8444
 3430WAT      O10808   4.502   0.282   3.019  0.3561  0.0618 -0.7406
 3430WAT     H110809   4.463   0.316   2.938 -1.7286 -1.5051 -0.5006
 3430WAT     H210810   4.553   0.205   2.992 -0.3389 -0.4609 -0.6073
 3431WAT      O10811   2.920   1.662   0.806  0.3916 -0.2550  0.2542
 3431WAT     H110812   2.991   1.607   0.841  1.0425  0.4275  0.0305
 3431WAT     H210813   2.963   1.744   0.783 -0.7631  0.7892  1.6358
 3432WAT      O10814   3.015   5.863   3.404  0.0626  0.0763  0.2047
 3432WAT     H110815   2.921   5.882   3.408 -0.0405 -0.3230 -0.2470
 3432WAT     H210816   3.028   5.830   3.315  1.0122  2.1972 -0.5026
 3433WAT      O10817   5.401   1.725   2.289 -0.1205 -0.1150  0.7020
 3433WAT     H110818   5.404   1.768   2.203 -1.4424  0.1715  0.7726
 3433WAT     H210819   5.389   1.632   2.270  0.5802 -0.1835  0.5738
 3434WAT      O10820   6.680   2.774   2.807 -0.1516  0.3269  0.3134
 3434WAT     H110821   6.632   2.760   2.889  1.2028  0.8309  1.2203
 3434WAT     H210822   6.619   2.826   2.753 -0.5122  1.2675  1.5725
 3435WAT      O10823   3.939   2.002   4.096 -0.3340  0.1240 -0.4657
 3435WAT     H110824   3.951   2.085   4.142 -1.6359  0.2798 -0.3715
 3435WAT     H210825   3.972   2.019   4.008 -1.7502  1.1632 -0.8293
 3436WAT      O10826   5.602   1.410   3.071 -0.1342  0.5288  0.5349
 3436WAT     H110827   5.646   1.488   3.106  0.6909 -0.7338  2.4636
 3436WAT     H210828   5.667   1.372   3.012  1.2304 -0.9721  2.8784
 3437WAT      O10829   4.407   6.056   1.746 -0.4027  0.1360  0.3888
 3437WAT     H110830   4.468   6.056   1.672 -0.0474  1.1953  0.6730
 3437WAT     H210831   4.321   6.064   1.705 -0.2584  0.0389  0.0554
 3438WAT      O10832   3.505   4.657   3.126 -0.3393  0.0425 -1.1310
 3438WAT     H110833   3.540   4.671   3.038 -0.6340 -0.4588 -1.3322
 3438WAT     H210834   3.581   4.627   3.177  0.1082  1.4854 -0.9005
 3439WAT      O10835   4.119   1.482   1.358 -0.1414 -0.1709 -0.1373
 3439WAT     H110836   4.185   1.431   1.405  0.2140 -0.4291 -0.8911
 3439WAT     H210837   4.167   1.559   1.327 -0.5935  0.4575  0.7070
 3440WAT      O10838   2.569   0.662   0.405  0.5236  0.1053 -0.7254
 3440WAT     H110839   2.531   0.723   0.468  2.5513  0.9696 -0.2754
 3440WAT     H210840   2.582   0.582   0.455  0.1340  0.0907 -0.6426
 3441WAT      O10841   4.387   2.586   5.985  0.2140 -0.3877  0.6042
 3441WAT     H110842   4.343   2.669   5.966 -2.0207 -1.4219  0.9759
 3441WAT     H210843   4.479   2.603   5.967 -0.2262  2.0889  0.4174
 3442WAT      O10844   4.852   0.632   1.730 -0.5653  0.1371 -0.1649
 3442WAT     H110845   4.909   0.561   1.760 -2.5434 -1.3104  0.3826
 3442WAT     H210846   4.904   0.711   1.743 -0.0467 -0.6751  4.0217
 3443WAT      O10847   5.604   0.053   3.861 -0.3243  0.0894 -0.4803
 3443WAT     H110848   5.557   0.092   3.935  1.8619  0.1310  0.9767
 3443WAT     H210849   5.544  -0.011   3.825 -0.8943 -1.1074  2.3926
 3444WAT      O10850   3.993   2.450   5.640  0.0505 -0.2477  0.0443
 3444WAT     H110851   3.940   2.468   5.562 -0.3468 -1.5619 -0.0272
 3444WAT     H210852   4.060   2.518   5.640 -1.2458  1.0954 -0.2259
 3445WAT      O10853   4.156   6.099   0.727 -0.3254  0.2129  0.3040
 3445WAT     H110854   4.222   6.037   0.695  0.9683  0.8223  1.7002
 3445WAT     H210855   4.112   6.053   0.798 -1.3448 -0.1294 -0.5149
 3446WAT      O10856   4.583   1.191   1.584 -0.0260 -0.1395 -0.5540
 3446WAT     H110857   4.515   1.224   1.642 -0.1238  2.1081 -1.8412
 3446WAT     H210858   4.570   1.096   1.583 -1.4677 -0.0006  1.2357
 3447WAT      O10859   4.258   1.718   0.596  0.2365  0.4216 -0.1155
 3447WAT     H110860   4.182   1.714   0.538  1.1334  2.0642 -1.4756
 3447WAT     H210861   4.250   1.802   0.640  2.0162  1.3348 -1.4103
 3448WAT      O10862   3.214   1.237   4.903 -0.3578 -0.4693  0.4218
 3448WAT     H110863   3.140   1.299   4.901 -0.5445 -0.6959 -0.9034
 3448WAT     H210864   3.274   1.274   4.968 -0.7156  0.8206  0.0624
 3449WAT      O10865   3.701   1.902   1.429  0.3328  0.0474  0.0518
 3449WAT     H110866   3.750   1.934   1.354  1.8474  2.7329  2.0057
 3449WAT     H210867   3.755   1.831   1.464 -0.2382 -1.0191 -1.1332
 3450WAT      O10868   1.535   1.900   1.256 -0.5317  0.4965  0.6396
 3450WAT     H110869   1.578   1.950   1.187 -0.5362  0.1759  0.4013
 3450WAT     H210870   1.596   1.903   1.330 -0.1834  0.1983  0.3659
 3451WAT      O10871   3.276   0.959   5.682 -0.3901 -0.0614  1.2496
 3451WAT     H110872   3.201   0.926   5.631 -0.1159  0.6053  0.3992
 3451WAT     H210873   3.318   1.022   5.624 -1.7704  3.0193  3.3350
 3452WAT      O10874   3.905   1.684   5.521 -0.0990 -0.5100  1.0199
 3452WAT     H110875   3.973   1.687   5.588  2.3377 -2.7456 -1.0992
 3452WAT     H210876   3.939   1.739   5.450 -0.7804 -1.1602  0.1752
 3453WAT      O10877   3.312   0.863   0.268  0.1591 -0.2838  0.2623
 3453WAT     H110878   3.352   0.904   0.191 -2.4956 -0.9967 -1.6070
 3453WAT     H210879   3.220   0.853   0.245 -0.2472 -2.8842  2.5471
 3454WAT      O10880   4.278   3.055   4.860 -0.4594 -0.3910  0.2979
 3454WAT     H110881   4.316   3.019   4.940 -1.8473  1.4258  1.8683
 3454WAT     H210882   4.193   3.013   4.852 -1.0464  0.6670  0.7744
 3455WAT      O10883   3.190   2.019   5.969 -0.1061  0.3708  0.0763
 3455WAT     H110884   3.106   1.984   6.000 -0.6625  0.7235 -0.9723
 3455WAT     H210885   3.210   2.090   6.030  0.0575 -0.4971  1.0579
 3456WAT      O10886   3.273   5.601   0.178 -0.1123  0.5008 -0.2250
 3456WAT     H110887   3.341   5.665   0.201  0.1997  0.1477 -0.1551
 3456WAT     H210888   3.305   5.519   0.215 -0.2966  0.2163 -0.6980
 3457WAT      O10889   2.394   1.229   5.466 -0.4524 -0.3933 -0.3063
 3457WAT     H110890   2.471   1.260   5.514  0.1603 -2.9419  0.4834
 3457WAT     H210891   2.427   1.160   5.410 -2.0456 -0.9670 -0.5800
 3458WAT      O10892   3.566   0.247   5.542 -0.2788  0.0485  0.4680
 3458WAT     H110893   3.589   0.235   5.450  0.0182  0.0100  0.5452
 3458WAT     H210894   3.471   0.247   5.543 -0.2836 -0.6957  0.2596
 3459WAT      O10895   2.731   5.725   0.486 -0.3601 -0.1253  0.1477
 3459WAT     H110896   2.646   5.704   0.527 -0.2978  1.2722  1.0588
 3459WAT     H210897   2.746   5.816   0.508  1.1398 -0.1935 -0.4845
 3460WAT      O10898   6.821   1.985   1.684  0.0485 -0.6563  0.5306
 3460WAT     H110899   6.739   2.020   1.650  0.0533 -1.7176 -0.6645
 3460WAT     H210900   6.794   1.927   1.756 -0.0480  0.7475  1.6592
 3461WAT      O10901   3.756   0.864   5.362 -0.0123 -0.4246  0.3742
 3461WAT     H110902   3.749   0.926   5.435 -0.5022  0.0602 -0.0762
 3461WAT     H210903   3.692   0.796   5.382 -0.0418 -0.3700  0.4647
 3462WAT      O10904   4.609   1.544   5.540 -0.3654 -0.4992 -0.1121
 3462WAT     H110905   4.588   1.544   5.447  1.0219  2.0880 -0.5097
 3462WAT     H210906   4.698   1.510   5.545  0.1673  0.8347  0.0260
 3463WAT      O10907   3.759   1.066   5.545  0.6311  0.0773  0.0279
 3463WAT     H110908   3.715   1.030   5.621  0.6881 -0.4694 -0.1931
 3463WAT     H210909   3.825   1.125   5.581  0.0872  0.4902  0.3746
 3464WAT      O10910   3.033   6.008   1.244  0.0295  0.3060 -0.1950
 3464WAT     H110911   3.103   6.061   1.206 -1.1136  1.3221 -0.9678
 3464WAT     H210912   3.012   5.944   1.176 -0.8452  1.0258 -0.6289
 3465WAT      O10913   4.710   1.795   5.913  0.3078  0.1809 -0.2346
 3465WAT     H110914   4.660   1.743   5.850  1.5603 -0.3332 -0.8567
 3465WAT     H210915   4.690   1.756   5.998  1.4511 -1.5865 -0.7171
 3466WAT      O10916   3.977   2.017   1.670  0.1562  0.4898 -0.6307
 3466WAT     H110917   3.978   2.073   1.592  0.2367  0.4752 -0.6409
 3466WAT     H210918   4.022   1.937   1.642 -1.8559 -0.4801 -1.2630
 3467WAT      O10919   3.347   0.530   1.853 -0.4411 -0.4692  0.5237
 3467WAT     H110920   3.307   0.487   1.929  0.5238 -0.2522  1.1628
 3467WAT     H210921   3.391   0.460   1.806 -1.3769 -0.6749 -0.0757
 3468WAT      O10922   2.694   5.662   0.201 -0.5519 -0.1102 -0.4713
 3468WAT     H110923   2.736   5.720   0.264 -1.7133  0.0127  0.2148
 3468WAT     H210924   2.601   5.669   0.221 -0.8281 -1.0416 -1.3834
 3469WAT      O10925   3.591   4.686   1.726  0.0520  0.2647  0.0075
 3469WAT     H110926   3.557   4.633   1.798 -0.7521 -0.3349 -0.7912
 3469WAT     H210927   3.599   4.774   1.763  1.8755 -0.4786  1.4989
 3470WAT      O10928   3.850   4.344   3.896 -0.2050  0.1477  0.0004
 3470WAT     H110929   3.796   4.271   3.925  0.5792 -0.2802  0.4445
 3470WAT     H210930   3.815   4.420   3.942 -1.0868  0.0747 -0.5357
 3471WAT      O10931   4.190   0.430   1.089  0.2287  0.6569  0.2623
 3471WAT     H110932   4.231   0.456   1.006 -1.4713  0.5899 -0.6355
 3471WAT     H210933   4.196   0.335   1.089 -1.5034  0.5043 -0.7725
 3472WAT      O10934   5.668   2.379   5.926  0.0639  0.1063 -0.2426
 3472WAT     H110935   5.719   2.309   5.885  0.6352 -1.1665  2.4623
 3472WAT     H210936   5.580   2.369   5.889  0.1528 -2.0146  0.0171
 3473WAT      O10937   4.845   5.083   0.759  0.1181 -0.1654  0.4684
 3473WAT     H110938   4.924   5.117   0.718  0.6073 -0.2786  1.2834
 3473WAT     H210939   4.832   5.140   0.835  0.7898 -1.5732  1.6981
 3474WAT      O10940   2.312   1.005   5.570 -0.7916  0.0281  0.3496
 3474WAT     H110941   2.352   1.090   5.553  0.6872 -0.3904  1.4449
 3474WAT     H210942   2.386   0.949   5.594 -1.2334 -2.4514 -3.2778
 3475WAT      O10943   4.203   2.788   5.931 -0.1757  0.0178 -0.1570
 3475WAT     H110944   4.143   2.783   5.857  1.3577 -1.9628 -1.3970
 3475WAT     H210945   4.160   2.845   5.994 -2.2407  0.5492 -1.9366
 3476WAT      O10946   4.329   5.684   1.026  0.2210 -0.2887 -0.9333
 3476WAT     H110947   4.260   5.619   1.042  0.0191  0.1335 -0.0401
 3476WAT     H210948   4.399   5.635   0.984  0.8576 -1.5213  1.4377
 3477WAT      O10949   1.840   1.892   5.562  0.1189 -0.5331 -0.5328
 3477WAT     H110950   1.882   1.808   5.581 -0.6606 -1.1881 -1.6052
 3477WAT     H210951   1.831   1.934   5.648  1.7792 -0.9117 -0.1441
 3478WAT      O10952   4.741   0.957   0.272 -0.4929  0.0097  0.1166
 3478WAT     H110953   4.802   0.886   0.250 -0.4993  0.1071 -0.2287
 3478WAT     H210954   4.675   0.954   0.202 -0.6294  0.1965  0.2366
 3479WAT      O10955   4.137   5.862   1.401  0.1371 -0.6970  0.1149
 3479WAT     H110956   4.062   5.896   1.353  0.2884  0.6831  0.7907
 3479WAT     H210957   4.155   5.776   1.363 -0.5669 -0.2066 -1.3549
 3480WAT      O10958   3.585   3.023   0.902 -0.6436 -0.2028 -0.1262
 3480WAT     H110959   3.564   3.078   0.826 -0.4835 -1.2712 -0.9662
 3480WAT     H210960   3.616   3.085   0.968 -1.9708  0.8920 -0.4741
 3481WAT      O10961   5.019   2.624   5.532  0.0445 -0.1131  0.3523
 3481WAT     H110962   4.990   2.661   5.448  0.2164 -2.1717 -0.6843
 3481WAT     H210963   4.998   2.531   5.525 -1.7525 -0.0693  3.3976
 3482WAT      O10964   3.001   1.656   5.939  0.2112 -0.0006  0.0236
 3482WAT     H110965   2.953   1.573   5.935 -0.4523  0.3779  0.0766
 3482WAT     H210966   3.058   1.646   6.015  0.8393 -0.7778 -0.5280
 3483WAT      O10967   4.007   2.021   4.854  0.5119  0.5133 -0.3559
 3483WAT     H110968   4.043   1.933   4.861 -1.5930 -0.3855 -0.2226
 3483WAT     H210969   3.997   2.036   4.760  0.2239  0.3159 -0.3584
 3484WAT      O10970   5.309   3.420   1.022  0.2508 -0.5076 -0.2195
 3484WAT     H110971   5.372   3.444   0.954  0.1345  0.5671  0.0282
 3484WAT     H210972   5.318   3.326   1.032 -0.6209 -0.9007 -2.6334
 3485WAT      O10973   4.407   1.695   0.172 -0.0414  0.0010 -0.6288
 3485WAT     H110974   4.370   1.640   0.103 -3.9574 -1.8751  2.5427
 3485WAT     H210975   4.340   1.761   0.188  0.8479  0.5080  1.2266
 3486WAT      O10976   3.471   1.090   1.421 -0.4541  0.3016 -0.3345
 3486WAT     H110977   3.453   0.996   1.418 -1.0526  0.4262 -1.3217
 3486WAT     H210978   3.435   1.124   1.338 -2.1836  1.7280  0.9197
 3487WAT      O10979   5.918   2.780   0.427  0.1295  0.1113 -0.6589
 3487WAT     H110980   5.887   2.761   0.515  0.6853 -1.3080 -0.7420
 3487WAT     H210981   5.953   2.869   0.433 -0.0534  0.1267  0.4858
 3488WAT      O10982   2.801   5.521   0.996  0.4141  0.2126 -0.1513
 3488WAT     H110983   2.732   5.563   1.047  2.4627  2.3878  1.0299
 3488WAT     H210984   2.763   5.510   0.909 -1.8733 -0.0510  0.8147
 3489WAT      O10985   4.167   1.237   1.150  0.2124 -0.3330 -0.3189
 3489WAT     H110986   4.134   1.321   1.180 -0.2295  0.0929 -1.8975
 3489WAT     H210987   4.260   1.237   1.174  0.9635  1.8770 -2.7667
 3490WAT      O10988   2.294   1.020   0.523  0.6966 -0.3317 -0.1623
 3490WAT     H110989   2.217   1.061   0.563  0.9254  1.4694 -1.4426
 3490WAT     H210990   2.271   1.012   0.430  1.8968 -0.1030 -0.4941
 3491WAT      O10991   3.842   1.451   4.291 -0.0977 -0.0446 -0.3953
 3491WAT     H110992   3.788   1.529   4.311 -0.8915 -1.2911  3.1322
 3491WAT     H210993   3.785   1.395   4.239 -0.3573  0.7689 -1.0005
 3492WAT      O10994   4.515   1.615   5.805 -0.1660  0.0217  0.1567
 3492WAT     H110995   4.558   1.605   5.720 -0.0072 -0.1572  0.2571
 3492WAT     H210996   4.422   1.599   5.787 -0.0025 -1.0077  0.1934
 3493WAT      O10997   4.897   0.034   1.276  0.2151  0.4227  0.5443
 3493WAT     H110998   4.960   0.040   1.204 -0.3244 -0.9150 -0.0660
 3493WAT     H210999   4.816   0.069   1.240 -0.2848 -1.0491  0.2079
 3494WAT      O11000   4.944   4.933   1.821  0.0056  0.0675 -0.1090
 3494WAT     H111001   4.896   4.862   1.779  0.3006 -1.1018  1.4230
 3494WAT     H211002   4.931   5.008   1.764 -1.1985 -0.9530 -1.2427
 3495WAT      O11003   2.977   1.917   0.054 -0.3457  0.4209 -0.4264
 3495WAT     H111004   2.976   1.833   0.008  1.0331 -0.3638  0.8961
 3495WAT     H211005   2.943   1.898   0.141 -2.5590  1.8158 -0.8972
 3496WAT      O11006   4.697   1.649   0.120  0.4590 -0.6862 -0.2577
 3496WAT     H111007   4.728   1.669   0.208  0.6232  0.6862 -0.6063
 3496WAT     H211008   4.602   1.642   0.129  0.6435 -3.0932  0.4724
 3497WAT      O11009   3.020   0.948   1.715 -0.2443  0.7200 -0.0233
 3497WAT     H111010   3.000   1.031   1.757  1.0395  0.4194  1.2439
 3497WAT     H211011   3.107   0.924   1.747 -0.6411 -1.1933 -0.2228
 3498WAT      O11012   4.298   1.402   5.561 -0.5294 -0.2263  0.3042
 3498WAT     H111013   4.283   1.384   5.654  1.1329 -1.0002  0.4571
 3498WAT     H211014   4.287   1.497   5.553  1.0156  0.1186  1.6815
 3499WAT      O11015   1.625   0.075   1.672  0.0164 -0.4459 -0.0375
 3499WAT     H111016   1.635  -0.012   1.633 -0.1184 -0.6128  0.3000
 3499WAT     H211017   1.604   0.132   1.598 -1.4329 -0.9648 -0.0517
 3500WAT      O11018   2.497   0.177   5.796  0.4368 -0.2785 -0.1363
 3500WAT     H111019   2.421   0.225   5.830  0.5599  1.1819 -1.7350
 3500WAT     H211020   2.511   0.214   5.709  2.1128 -1.5343 -0.4565
 3501WAT      O11021   4.775   3.875   1.044 -0.3935  0.0930 -0.1518
 3501WAT     H111022   4.809   3.787   1.062  1.9677  0.7266 -1.1070
 3501WAT     H211023   4.767   3.878   0.948  2.4717  1.7811 -0.4611
 3502WAT      O11024   3.481   0.861   4.836  0.3291  0.5007 -0.2754
 3502WAT     H111025   3.464   0.789   4.897  1.0551  0.5981  0.0568
 3502WAT     H211026   3.403   0.865   4.781  0.3934 -0.7270 -0.4864
 3503WAT      O11027   0.036   3.151   2.762 -0.0229  0.4894  0.1813
 3503WAT     H111028  -0.002   3.067   2.735 -1.0487  1.3994 -1.4015
 3503WAT     H211029   0.084   3.181   2.685  1.1108  0.9456  1.0418
 3504WAT      O11030   4.459   0.178   0.793 -0.4243 -0.1119  0.0179
 3504WAT     H111031   4.450   0.189   0.888  1.6588  0.3457  0.2247
 3504WAT     H211032   4.493   0.089   0.782 -1.9495 -0.6615 -0.4287
 3505WAT      O11033   2.085   0.312   4.924  0.0261  0.3645 -0.1688
 3505WAT     H111034   2.074   0.218   4.940 -0.1528  0.5734  0.9812
 3505WAT     H211035   2.027   0.330   4.850 -0.7901 -0.2229  0.3123
 3506WAT      O11036   2.429   1.365   0.212  0.6061 -0.1063 -0.2838
 3506WAT     H111037   2.489   1.292   0.228 -0.0265 -0.6527 -0.3569
 3506WAT     H211038   2.359   1.353   0.277 -1.0793 -1.3170 -2.1748
 3507WAT      O11039   2.789   5.986   0.556 -0.6643 -0.2363  0.1561
 3507WAT     H111040   2.817   6.076   0.537 -0.0837 -0.4529 -0.0129
 3507WAT     H211041   2.703   5.997   0.597 -0.1114  0.4649  1.1840
 3508WAT      O11042   2.228   4.580   5.158  0.0904 -0.0216  0.5839
 3508WAT     H111043   2.277   4.557   5.238 -1.2643  0.3915  1.5624
 3508WAT     H211044   2.293   4.572   5.088  1.3593 -0.2605  1.7337
 3509WAT      O11045   2.665   1.102   5.468  0.5757  0.0276  0.2231
 3509WAT     H111046   2.703   1.075   5.551  1.9382 -1.1033 -0.7221
 3509WAT     H211047   2.654   1.020   5.419 -0.4841  0.6382 -0.6031
 3510WAT      O11048   1.453   0.718   1.129  0.0710 -0.1852 -0.1599
 3510WAT     H111049   1.361   0.746   1.130  0.4864  1.3382  1.3624
 3510WAT     H211050   1.471   0.696   1.038 -1.6703 -0.0505 -0.5649
 3511WAT      O11051   2.698   5.916   5.264 -0.0123 -0.0346 -0.2419
 3511WAT     H111052   2.669   5.826   5.280 -1.9534  0.5175 -0.4079
 3511WAT     H211053   2.670   5.934   5.174 -3.4353  2.0161  1.0349
 3512WAT      O11054   3.617   4.563   4.879 -0.2302 -0.5288  0.6184
 3512WAT     H111055   3.689   4.626   4.890 -0.0293 -0.7523  0.5996
 3512WAT     H211056   3.555   4.585   4.947  0.3156 -0.9628  1.2762
 3513WAT      O11057   3.194   6.120   3.355 -0.1129  0.1417 -0.1252
 3513WAT     H111058   3.134   6.045   3.353 -1.3724  1.0746  0.9311
 3513WAT     H211059   3.136   6.197   3.354  1.1408  1.1138 -0.8928
 3514WAT      O11060   1.937   4.549   0.284  0.1735 -0.1878 -0.1194
 3514WAT     H111061   1.887   4.607   0.227 -0.9743 -0.3671  0.6769
 3514WAT     H211062   1.926   4.462   0.245  0.4198 -0.1367 -0.3084
 3515WAT      O11063   4.532   5.736   5.200 -0.0897 -0.6398  0.4929
 3515WAT     H111064   4.607   5.693   5.159 -0.0987  0.4541 -0.7080
 3515WAT     H211065   4.505   5.802   5.137 -1.3206 -0.2117  1.4439
 3516WAT      O11066   1.804   0.755   4.600 -0.0534  0.2511 -0.2547
 3516WAT     H111067   1.899   0.762   4.597  0.0525 -0.1107  1.3170
 3516WAT     H211068   1.780   0.789   4.687 -1.3650  0.3727 -0.6326
 3517WAT      O11069   2.690   1.159   4.014 -0.3541 -0.5183 -0.2609
 3517WAT     H111070   2.736   1.161   3.930 -0.1891  2.4249 -0.2241
 3517WAT     H211071   2.600   1.135   3.990 -0.2501  0.0102 -1.2607
 3518WAT      O11072   3.682   6.003   4.306  0.1960 -0.1534  0.2902
 3518WAT     H111073   3.601   6.052   4.317  0.9660  1.3029 -0.1878
 3518WAT     H211074   3.659   5.913   4.324 -1.7213  0.1003 -0.6805
 3519WAT      O11075   2.773   0.979   4.749  0.5245  0.2751 -0.1951
 3519WAT     H111076   2.857   0.970   4.704  0.0465 -1.0932 -0.8568
 3519WAT     H211077   2.787   1.050   4.812  2.7222 -1.0154  0.8919
 3520WAT      O11078   3.640   0.162   5.276  0.1762  0.1783  0.6616
 3520WAT     H111079   3.696   0.204   5.211 -0.8779  1.1332  0.3357
 3520WAT     H211080   3.586   0.101   5.226 -1.0785  1.3699  0.5021
 3521WAT      O11081   2.080   0.179   0.411  0.2189  0.1949  0.1105
 3521WAT     H111082   2.074   0.228   0.329  0.9123  0.8213  0.4201
 3521WAT     H211083   2.112   0.243   0.475  0.2155 -0.4237  0.7449
 3522WAT      O11084   2.352   6.049   3.939  0.2427  0.1040 -0.8048
 3522WAT     H111085   2.264   6.084   3.925  0.0444 -0.3154 -0.6145
 3522WAT     H211086   2.396   6.059   3.855 -0.0992 -0.0046 -0.9962
 3523WAT      O11087   2.667   5.768   3.786  0.5008 -0.0517 -0.1646
 3523WAT     H111088   2.622   5.800   3.864 -0.6585  1.3059 -1.3167
 3523WAT     H211089   2.608   5.701   3.750  0.0649  0.6748 -0.8644
 3524WAT      O11090   1.700   4.705   0.306 -0.1312 -0.2272  0.4763
 3524WAT     H111091   1.761   4.718   0.379 -0.2030 -0.1429  0.5227
 3524WAT     H211092   1.699   4.789   0.260 -2.8472  1.0328  2.5074
 3525WAT      O11093   4.301   4.722   5.851 -0.2041 -0.1416 -0.1168
 3525WAT     H111094   4.368   4.766   5.799 -0.4945 -0.8028 -1.0744
 3525WAT     H211095   4.307   4.630   5.824 -1.2668 -0.2638  0.0337
 3526WAT      O11096   3.954   1.445   4.642 -0.1211  0.2289  0.4984
 3526WAT     H111097   3.980   1.385   4.712  2.2539 -0.8140 -1.1151
 3526WAT     H211098   3.870   1.412   4.612  0.6380 -1.7214  0.3529
 3527WAT      O11099   4.958   5.620   0.677  0.1806 -0.6371 -0.1281
 3527WAT     H111100   4.907   5.538   0.681 -0.2139 -0.4674 -1.3160
 3527WAT     H211101   5.028   5.601   0.614  1.8884 -1.0012  1.7886
 3528WAT      O11102   0.969   5.917   2.663 -0.7994  0.1652 -0.4231
 3528WAT     H111103   0.914   5.955   2.731 -0.7995  1.6839 -1.2257
 3528WAT     H211104   1.042   5.979   2.653 -0.8827  0.0737 -1.8850
 3529WAT      O11105   3.879   5.019   5.753  0.1256 -0.1298 -0.3466
 3529WAT     H111106   3.834   5.019   5.669 -0.3661  0.6763 -0.1004
 3529WAT     H211107   3.822   5.070   5.810  0.6584 -0.3112  0.3656
 3530WAT      O11108   4.698   0.867   4.104 -0.4320 -0.2109 -0.7176
 3530WAT     H111109   4.664   0.954   4.123 -0.1413  0.0817 -1.5352
 3530WAT     H211110   4.619   0.813   4.091 -0.6427 -0.3584  0.9401
 3531WAT      O11111   2.712   5.934   5.649  0.1402  0.2744 -0.0895
 3531WAT     H111112   2.784   5.902   5.704 -1.4113  0.1643  2.0169
 3531WAT     H211113   2.755   5.983   5.579  2.3943 -2.4942 -0.8222
 3532WAT      O11114   2.019   5.968   5.264  0.1885  0.4915 -0.5569
 3532WAT     H111115   2.032   5.895   5.203  1.3667  1.4176 -1.4551
 3532WAT     H211116   1.925   5.987   5.258  0.2062  0.3111 -1.8079
 3533WAT      O11117   2.753   4.965   0.327  0.5224  0.0069 -0.1064
 3533WAT     H111118   2.777   4.933   0.241  1.7804  2.6932 -0.8658
 3533WAT     H211119   2.798   4.906   0.388  2.8491  0.3356 -1.3947
 3534WAT      O11120   4.521   0.420   5.760  0.3577  0.3689  0.1331
 3534WAT     H111121   4.598   0.365   5.743  0.3230  0.3047  0.1809
 3534WAT     H211122   4.499   0.457   5.674  0.8498  0.9323  0.2459
 3535WAT      O11123   3.145   0.797   5.128 -0.4401 -0.2130  0.2114
 3535WAT     H111124   3.166   0.888   5.112 -0.3016 -0.7090 -2.9759
 3535WAT     H211125   3.120   0.762   5.042 -0.6286 -3.1364  1.3350
 3536WAT      O11126   2.583   0.937   3.730 -0.0381  0.4368 -0.5011
 3536WAT     H111127   2.624   0.889   3.803  0.7139  0.2941 -1.0037
 3536WAT     H211128   2.493   0.906   3.728 -0.3565  1.1632  0.9937
 3537WAT      O11129   4.894   2.355   5.255 -0.0505  0.0056 -0.2501
 3537WAT     H111130   4.935   2.317   5.178 -0.4519  1.7845 -1.3803
 3537WAT     H211131   4.954   2.335   5.327  0.8679 -0.7362 -1.2021
 3538WAT      O11132   3.561   4.571   0.387 -0.6775 -0.1585  0.8172
 3538WAT     H111133   3.578   4.660   0.358 -2.2111 -0.1568 -0.2145
 3538WAT     H211134   3.561   4.576   0.482  1.6696  0.4276  0.8242
 3539WAT      O11135   4.238   5.959   4.329  0.1835 -0.5415  0.0371
 3539WAT     H111136   4.221   6.046   4.365 -1.5167 -0.0398 -1.7803
 3539WAT     H211137   4.313   5.926   4.379  0.6779  1.8222  0.9731
 3540WAT      O11138   3.427   4.327   0.039  0.0638  0.8062 -0.4020
 3540WAT     H111139   3.332   4.332   0.039  0.0426  0.4157 -0.0631
 3540WAT     H211140   3.449   4.299  -0.050 -0.2460 -0.8567  0.0159
 3541WAT      O11141   2.849   1.239   4.921  0.5292 -0.0233  0.0801
 3541WAT     H111142   2.890   1.212   5.003 -0.6664 -1.9886  0.0868
 3541WAT     H211143   2.757   1.252   4.943  0.2565 -0.2706 -0.8809
 3542WAT      O11144   1.786   5.315   3.666 -0.3667  0.5461  0.0768
 3542WAT     H111145   1.866   5.363   3.649  0.2720 -0.5173 -0.0246
 3542WAT     H211146   1.784   5.305   3.761  1.1706 -1.8900 -0.0522
 3543WAT      O11147   3.446   3.508   0.123  0.4823 -0.2092  0.7813
 3543WAT     H111148   3.359   3.478   0.095 -0.3422  1.2675  1.6460
 3543WAT     H211149   3.506   3.465   0.063 -0.9339 -0.3534 -0.5987
 3544WAT      O11150   3.859   0.569   5.504 -0.0072  0.4453  0.5118
 3544WAT     H111151   3.885   0.540   5.591 -0.6379  1.5667  1.1087
 3544WAT     H211152   3.923   0.637   5.482  0.3967 -0.1230 -0.0848
 3545WAT      O11153   4.137   0.223   0.664 -0.5335  0.4580 -0.5482
 3545WAT     H111154   4.141   0.133   0.696 -0.7845  0.6315 -0.0248
 3545WAT     H211155   4.195   0.224   0.588 -1.6879 -0.5263 -1.4922
 3546WAT      O11156   2.608   0.332   3.518 -0.2362 -0.4689  0.7245
 3546WAT     H111157   2.660   0.408   3.545 -1.2668  0.1864  0.9125
 3546WAT     H211158   2.525   0.342   3.564 -0.8602 -1.0243 -0.2437
 3547WAT      O11159   2.157   5.879   0.447 -0.1883 -0.3421 -0.4741
 3547WAT     H111160   2.166   5.810   0.382  0.1492 -0.7523 -0.0061
 3547WAT     H211161   2.126   5.955   0.398  0.3161 -0.5665 -1.1602
 3548WAT      O11162   2.662   0.148   1.346 -0.7934 -0.0197 -0.8457
 3548WAT     H111163   2.606   0.112   1.277 -0.0464  1.8782 -2.5221
 3548WAT     H211164   2.685   0.072   1.400 -2.1268 -1.4066 -2.1302
 3549WAT      O11165   3.281   4.981   0.878  0.0437  0.1984  0.1846
 3549WAT     H111166   3.224   4.991   0.801  0.1667 -0.3149  0.0200
 3549WAT     H211167   3.268   5.061   0.929 -0.2426  0.4221 -0.2389
 3550WAT      O11168   4.718   0.384   0.691  0.3640 -0.5343 -0.3167
 3550WAT     H111169   4.754   0.469   0.716 -0.1426 -0.4306  0.0745
 3550WAT     H211170   4.673   0.400   0.608  1.3693 -0.7073 -0.9139
 3551WAT      O11171   4.183   0.075   4.407  0.1567  0.4988 -0.0654
 3551WAT     H111172   4.119   0.067   4.477  1.3850 -0.3186  1.0030
 3551WAT     H211173   4.131   0.102   4.330 -1.3657  0.3394  0.8679
 3552WAT      O11174   4.810   2.934   1.078  0.0286 -0.3439  0.3340
 3552WAT     H111175   4.756   3.008   1.050  0.0865 -0.4136  0.0442
 3552WAT     H211176   4.870   2.971   1.142  0.4163 -0.0341 -0.2079
 3553WAT      O11177   3.528   0.701   0.379  0.0582 -0.4386 -0.1073
 3553WAT     H111178   3.466   0.773   0.390  0.3651 -0.1507 -0.2257
 3553WAT     H211179   3.517   0.647   0.457 -1.3408 -1.1686 -0.7710
 3554WAT      O11180   2.490   0.824   4.360  0.4542 -0.0439 -0.1399
 3554WAT     H111181   2.506   0.732   4.380 -1.2827 -0.6171 -1.1419
 3554WAT     H211182   2.570   0.854   4.318  1.1187 -1.0308  0.3863
 3555WAT      O11183   2.428   4.085   4.399  0.7287  0.9401  0.3110
 3555WAT     H111184   2.391   4.024   4.463  0.1018  0.1977 -0.7392
 3555WAT     H211185   2.498   4.130   4.448  0.0208  0.6720  1.6192
 3556WAT      O11186   2.003   3.602   5.473 -0.1620 -0.5579  0.0408
 3556WAT     H111187   2.094   3.623   5.497 -0.1874 -1.0863  0.6318
 3556WAT     H211188   1.951   3.633   5.548 -0.5197  0.1036 -0.4675
 3557WAT      O11189   3.169   4.410   0.100  0.1480 -0.1013 -0.0182
 3557WAT     H111190   3.078   4.379   0.102  0.4626 -0.9997  1.8117
 3557WAT     H211191   3.183   4.450   0.186  1.0554  1.4317 -0.8210
 3558WAT      O11192   1.549   1.072   5.123 -0.2018  0.8473 -0.3184
 3558WAT     H111193   1.484   1.010   5.090 -0.6472  0.3816  1.3397
 3558WAT     H211194   1.500   1.127   5.185  0.3632  2.3378 -1.1410
 3559WAT      O11195   0.658   0.487   2.971  0.1382 -0.5952 -0.3812
 3559WAT     H111196   0.676   0.510   3.062 -1.0044 -4.3444  0.9741
 3559WAT     H211197   0.566   0.512   2.958  0.3428  0.0689 -0.5517
 3560WAT      O11198   3.798   1.140   4.109  0.1663  0.1130 -0.1727
 3560WAT     H111199   3.872   1.090   4.144 -0.8718 -0.9537  0.5859
 3560WAT     H211200   3.837   1.196   4.042  1.4854 -1.2768 -0.6367
 3561WAT      O11201   2.504   5.596   3.383 -0.1242 -0.0943  0.1452
 3561WAT     H111202   2.414   5.593   3.348  0.4123 -3.1695 -1.3837
 3561WAT     H211203   2.558   5.616   3.306  0.7082 -1.8803  0.2175
 3562WAT      O11204   3.061   0.710   4.899  0.1734  0.0635  0.1362
 3562WAT     H111205   2.999   0.637   4.894  1.1926 -0.9738  1.7251
 3562WAT     H211206   3.116   0.699   4.822 -0.9696  0.4386 -0.7759
 3563WAT      O11207   2.541   5.849   3.192  0.2521 -0.0762 -1.1920
 3563WAT     H111208   2.500   5.826   3.109 -0.9548 -2.0479 -0.1116
 3563WAT     H211209   2.471   5.890   3.242  0.5723 -0.2736 -0.5819
 3564WAT      O11210   3.644   5.836   4.787  0.6997  0.1414 -0.3496
 3564WAT     H111211   3.675   5.814   4.875 -1.5575 -0.8706  0.2817
 3564WAT     H211212   3.682   5.769   4.731  1.4539  0.2760 -0.0144
 3565WAT      O11213   4.190   5.530   3.999 -0.2187 -0.0984 -0.4245
 3565WAT     H111214   4.147   5.615   3.988  0.0635  0.0670 -0.2613
 3565WAT     H211215   4.208   5.525   4.093 -1.7621 -1.0814 -0.1412
 3566WAT      O11216   1.920   0.695   5.598 -0.1995  0.9914  0.3984
 3566WAT     H111217   1.943   0.743   5.519  0.6462  0.5934  0.3939
 3566WAT     H211218   1.867   0.757   5.649  0.5596  1.7922  0.2271
 3567WAT      O11219   1.816   0.910   5.801 -0.0955  0.1787 -0.2955
 3567WAT     H111220   1.739   0.919   5.857 -0.4874 -0.4790 -0.7062
 3567WAT     H211221   1.882   0.870   5.858 -0.2423  0.2257 -0.0902
 3568WAT      O11222   2.824   4.113   3.354  0.0263  0.0046 -0.3999
 3568WAT     H111223   2.734   4.141   3.343  0.0943  0.0979 -0.7446
 3568WAT     H211224   2.850   4.081   3.268  0.2498 -0.2324 -0.2463
 3569WAT      O11225   2.309   5.565   2.568 -0.1393  0.4495  0.5647
 3569WAT     H111226   2.231   5.592   2.520  0.9641 -0.7639 -2.1348
 3569WAT     H211227   2.365   5.643   2.568 -0.8671  1.0000  1.5758
 3570WAT      O11228   3.572   1.410   5.728  0.0542 -0.8337 -0.2212
 3570WAT     H111229   3.630   1.416   5.652  1.2512 -1.8282  0.5777
 3570WAT     H211230   3.584   1.320   5.760 -0.1150 -0.3105  1.3788
 3571WAT      O11231   1.540   5.847   4.071  0.5419 -0.4185 -0.0364
 3571WAT     H111232   1.550   5.858   4.166  2.4770 -2.9809  0.1535
 3571WAT     H211233   1.467   5.785   4.062 -1.2524  1.6159 -0.4342
 3572WAT      O11234   5.407   5.930   3.879  0.1902 -0.2188  0.8424
 3572WAT     H111235   5.384   5.977   3.959 -1.7028 -0.5933  0.5698
 3572WAT     H211236   5.341   5.957   3.816  1.2678 -0.4334 -0.4107
 3573WAT      O11237   3.979   5.298   5.199  0.1194 -0.3968 -0.2591
 3573WAT     H111238   3.952   5.315   5.289  1.1745  1.2287 -0.2032
 3573WAT     H211239   4.002   5.384   5.165  0.8010 -1.1316 -1.7332
 3574WAT      O11240   4.965   4.861   4.112  0.2608  0.2884  0.0877
 3574WAT     H111241   4.971   4.864   4.016  0.0347 -0.6341  0.0412
 3574WAT     H211242   5.004   4.944   4.140  1.5144  0.0138 -0.7446
 3575WAT      O11243   2.936   5.357   4.555  0.5396 -0.0558 -0.4301
 3575WAT     H111244   2.850   5.397   4.545 -0.2335 -1.1786  1.2718
 3575WAT     H211245   2.929   5.304   4.634  2.0397 -2.0996 -1.5562
 3576WAT      O11246   3.713   5.928   2.875  0.2331  0.2559  0.4171
 3576WAT     H111247   3.627   5.933   2.918  0.0693 -0.1924  0.1565
 3576WAT     H211248   3.750   5.845   2.906 -0.1388 -0.3759 -0.7368
 3577WAT      O11249   2.879   3.951   3.589 -0.5753 -0.8472 -0.4069
 3577WAT     H111250   2.966   3.978   3.616 -0.6738 -1.3951  0.5066
 3577WAT     H211251   2.868   3.989   3.502 -0.1150  0.6970  0.1737
 3578WAT      O11252   2.761   4.559   4.443  0.3780  0.0575  0.6927
 3578WAT     H111253   2.735   4.539   4.354 -0.3745 -3.8397  1.6087
 3578WAT     H211254   2.842   4.509   4.457 -0.0974 -0.3172  2.4449
 3579WAT      O11255   4.284   4.795   2.804  0.4743 -0.0180  0.3185
 3579WAT     H111256   4.220   4.794   2.875 -1.1710 -1.3910 -1.1014
 3579WAT     H211257   4.232   4.788   2.725  2.0902  3.2962 -1.2686
 3580WAT      O11258   2.266   5.468   4.186 -0.0847  0.6065 -0.1000
 3580WAT     H111259   2.191   5.424   4.227  0.8058 -1.5855 -0.6830
 3580WAT     H211260   2.330   5.478   4.256 -0.6428  1.9367  0.2575
 3581WAT      O11261   4.116   4.507   3.583  0.1453 -0.2599 -0.1478
 3581WAT     H111262   4.108   4.500   3.678  0.2170  0.0774 -0.1168
 3581WAT     H211263   4.210   4.505   3.566  0.1601  0.2814 -0.1614
 3582WAT      O11264   0.936   2.113   2.942 -0.1808  0.4528  0.2140
 3582WAT     H111265   0.883   2.038   2.913  1.4375 -0.3183 -0.9226
 3582WAT     H211266   0.910   2.128   3.033  0.0795 -2.0866  0.7761
 3583WAT      O11267   3.171   0.284   4.587  0.0484  0.4900 -0.6852
 3583WAT     H111268   3.202   0.372   4.566 -0.3606  0.5813 -0.9072
 3583WAT     H211269   3.108   0.264   4.518 -0.9656  0.6158  0.1860
 3584WAT      O11270   1.588   3.355   3.810 -0.4154  0.3390 -0.0110
 3584WAT     H111271   1.525   3.288   3.787 -0.1994  0.0308  0.2836
 3584WAT     H211272   1.567   3.379   3.901 -1.1079  1.3692 -0.4207
 3585WAT      O11273   2.025   3.959   4.307 -0.1960 -0.3059 -0.5210
 3585WAT     H111274   1.996   3.891   4.367 -0.9620 -0.2102 -0.7786
 3585WAT     H211275   2.085   3.914   4.247 -1.7607 -1.1053 -1.5652
 3586WAT      O11276   3.264   6.082   4.459 -0.4512  0.4441 -0.1496
 3586WAT     H111277   3.170   6.088   4.441 -0.2030  2.3033 -1.0761
 3586WAT     H211278   3.271   6.094   4.553 -1.1891 -0.7651  0.0849
 3587WAT      O11279   3.409   0.850   5.264 -0.5038  0.2875 -0.3852
 3587WAT     H111280   3.317   0.831   5.249 -0.4331  0.5090 -1.1817
 3587WAT     H211281   3.456   0.794   5.202 -0.2354  1.9468 -1.7680
 3588WAT      O11282   2.502   4.632   2.558 -0.0341  0.1242 -0.8589
 3588WAT     H111283   2.481   4.573   2.486 -0.3911  0.4779 -1.0445
 3588WAT     H211284   2.419   4.675   2.579  0.2070  0.5004 -0.6714
 3589WAT      O11285   1.442   5.094   3.616  0.0211  0.0055 -0.3057
 3589WAT     H111286   1.454   5.188   3.604  1.4303 -0.0429  0.5389
 3589WAT     H211287   1.376   5.087   3.685  0.0607  0.3858 -0.2250
 3590WAT      O11288   1.403   0.197   4.223  0.0499 -0.8935 -0.5934
 3590WAT     H111289   1.396   0.219   4.130  0.7717  0.7643 -0.2912
 3590WAT     H211290   1.479   0.247   4.253 -0.9454 -0.3739  1.1631
 3591WAT      O11291   3.749   5.105   3.103  0.3288 -0.1729  0.1933
 3591WAT     H111292   3.836   5.144   3.090  0.1633  0.9164  1.9714
 3591WAT     H211293   3.689   5.179   3.098 -0.4314 -0.8023 -0.1828
 3592WAT      O11294   3.967   0.222   5.727  0.7583  0.0919 -0.3251
 3592WAT     H111295   3.880   0.261   5.722  0.7916  0.2082 -0.0291
 3592WAT     H211296   4.025   0.287   5.687  0.5000 -0.6803 -2.0314
 3593WAT      O11297   4.035   0.521   5.700 -0.6510 -0.0831  0.1414
 3593WAT     H111298   4.094   0.590   5.666 -1.3478 -0.4483 -1.9410
 3593WAT     H211299   4.008   0.554   5.786  0.8710  1.1274  0.2151
 3594WAT      O11300   1.306   1.801   5.272  0.1523 -0.6081 -0.5245
 3594WAT     H111301   1.276   1.762   5.354  1.8535 -0.4201  0.2327
 3594WAT     H211302   1.384   1.751   5.249  1.3326  1.1407 -0.4897
 3595WAT      O11303   3.578   5.331   3.152  0.0307  0.2492  0.0759
 3595WAT     H111304   3.510   5.396   3.166  0.4685  0.7558 -0.1322
 3595WAT     H211305   3.588   5.288   3.237 -0.6730  0.0422  0.0598
 3596WAT      O11306   1.553   0.016   3.555 -0.0490  0.3988  0.2212
 3596WAT     H111307   1.584  -0.058   3.607 -0.1626 -0.2107 -0.5573
 3596WAT     H211308   1.465  -0.009   3.528 -0.2470  1.0017  0.2849
 3597WAT      O11309   1.662   0.264   1.464  0.8710  0.5291 -0.0012
 3597WAT     H111310   1.592   0.323   1.436  1.2548  1.8147  1.5927
 3597WAT     H211311   1.730   0.322   1.499  1.2027 -0.8411  1.8053
 3598WAT      O11312   5.523   4.267   3.243  0.5701  0.4222  0.3205
 3598WAT     H111313   5.610   4.277   3.280 -0.0033 -1.4955  2.3833
 3598WAT     H211314   5.532   4.194   3.181  0.9204  1.8563 -1.3976
 3599WAT      O11315   3.199   4.903   2.731  0.6254  0.2054 -0.0102
 3599WAT     H111316   3.141   4.834   2.700 -0.5300  1.5981 -1.0601
 3599WAT     H211317   3.149   4.948   2.799  0.7839  0.8889 -0.3298
 3600WAT      O11318   2.460   0.592   3.824  0.1882 -0.0287 -0.2607
 3600WAT     H111319   2.401   0.667   3.816 -1.2434 -0.9322  1.1856
 3600WAT     H211320   2.484   0.590   3.917  0.6057 -1.0844 -0.3755
 3601WAT      O11321   2.977   0.756   5.370  0.0891 -0.1240 -0.0001
 3601WAT     H111322   2.929   0.689   5.322 -0.3920  0.1092  0.1505
 3601WAT     H211323   3.028   0.802   5.303 -2.3119  1.7064 -0.6935
 3602WAT      O11324   2.448   4.494   3.392 -0.2459 -0.2265  0.0701
 3602WAT     H111325   2.392   4.551   3.446 -0.3895  0.3937 -0.7155
 3602WAT     H211326   2.471   4.548   3.316  0.1933 -0.9914 -0.3541
 3603WAT      O11327   2.278   5.914   3.275 -0.6132  0.1533 -0.3794
 3603WAT     H111328   2.240   5.958   3.351 -0.2612  0.2963 -0.2856
 3603WAT     H211329   2.236   5.956   3.200 -0.2064  0.7235 -0.2930
 3604WAT      O11330   3.235   0.162   3.667  0.5305  0.2766 -0.2588
 3604WAT     H111331   3.321   0.161   3.624  0.2275 -0.6464 -0.8786
 3604WAT     H211332   3.218   0.254   3.685  0.8829  0.6581 -1.7270
 3605WAT      O11333   3.741   0.938   4.478  0.2421 -0.2210  0.1655
 3605WAT     H111334   3.804   0.993   4.433  2.4059 -1.9106  0.9515
 3605WAT     H211335   3.757   0.955   4.571 -1.1146 -0.0514  0.4025
 3606WAT      O11336   1.869   6.031   4.454 -0.0621 -0.4114 -0.1402
 3606WAT     H111337   1.892   5.980   4.376 -1.1962 -0.9784 -0.1262
 3606WAT     H211338   1.921   6.111   4.446  1.3717 -1.3395 -0.4265
 3607WAT      O11339   2.275   5.380   3.016  0.1739  0.0789 -0.3566
 3607WAT     H111340   2.357   5.367   2.968 -0.3150 -1.1502 -0.9074
 3607WAT     H211341   2.286   5.331   3.097 -0.1077 -0.3290 -0.5584
 3608WAT      O11342   3.043   3.837   1.963  0.3927  0.2448  0.3801
 3608WAT     H111343   2.974   3.770   1.970 -0.5855  0.9739 -1.6335
 3608WAT     H211344   3.121   3.789   1.937  0.2834 -0.3880  1.1733
 3609WAT      O11345   2.603   0.065   4.069 -0.1556  0.3028  0.1235
 3609WAT     H111346   2.680   0.039   4.119 -0.5979  1.4143  1.4543
 3609WAT     H211347   2.587  -0.009   4.010  1.1901 -0.4790  0.6829
 3610WAT      O11348   3.477   5.376   4.955  0.3570  0.4661  0.5557
 3610WAT     H111349   3.544   5.323   4.911  0.3753 -0.2294  1.4167
 3610WAT     H211350   3.415   5.313   4.991  2.1812  0.7047  4.6361
 3611WAT      O11351   4.712   5.539   5.079  0.0879 -1.0374 -0.0668
 3611WAT     H111352   4.785   5.479   5.090  0.2700 -0.7494  0.3082
 3611WAT     H211353   4.714   5.562   4.986  1.8111  0.6318  0.3181
 3612WAT      O11354   3.591   5.065   4.525  0.1436  0.3488  0.1444
 3612WAT     H111355   3.544   5.147   4.511 -0.4687 -0.1855 -1.1872
 3612WAT     H211356   3.639   5.078   4.606  0.0026  1.9922 -0.0015
 3613WAT      O11357   2.316   0.289   5.105 -0.0034  0.8018 -0.2321
 3613WAT     H111358   2.247   0.280   5.038  0.2099 -0.4498 -0.2932
 3613WAT     H211359   2.350   0.201   5.117  0.4729  1.1383  1.0100
 3614WAT      O11360   1.707   6.068   3.993  0.3410  0.5263  0.1328
 3614WAT     H111361   1.669   6.116   3.919 -1.4537  2.2793  2.0682
 3614WAT     H211362   1.650   5.992   4.004  0.1588  0.6758  0.2110
 3615WAT      O11363   2.627   1.539   3.241 -0.1821 -0.0153 -0.5549
 3615WAT     H111364   2.676   1.621   3.237 -0.3843  0.1296 -0.0848
 3615WAT     H211365   2.619   1.520   3.334 -0.7308 -0.2076 -0.6368
 3616WAT      O11366   4.782   1.152   0.043  0.5590 -0.6882  0.2128
 3616WAT     H111367   4.741   1.068   0.021 -1.4018  0.6075 -1.3821
 3616WAT     H211368   4.777   1.157   0.138 -1.0761 -1.5447  0.2011
 3617WAT      O11369   3.162   5.520   2.005 -0.0902 -0.5179 -0.3026
 3617WAT     H111370   3.180   5.464   1.929 -0.0855 -1.7459  0.5814
 3617WAT     H211371   3.172   5.609   1.971 -1.0741 -1.0040 -1.9982
 3618WAT      O11372   2.185   2.757   4.417 -0.2758 -0.2319 -0.0938
 3618WAT     H111373   2.254   2.822   4.399 -0.3049 -0.4795 -1.1731
 3618WAT     H211374   2.214   2.678   4.371 -0.5716 -0.7898  0.6548
 3619WAT      O11375   3.135   1.065   5.089 -0.1505  0.3361 -0.1062
 3619WAT     H111376   3.189   1.115   5.029 -0.4553  1.0343  0.1930
 3619WAT     H211377   3.092   1.131   5.144 -0.1415 -0.2740  0.6522
 3620WAT      O11378   1.400   4.957   2.792 -0.7923 -0.1130 -0.1810
 3620WAT     H111379   1.308   4.953   2.819 -0.6099 -0.2430  0.4372
 3620WAT     H211380   1.396   4.965   2.697 -1.4336 -0.7646 -0.2235
 3621WAT      O11381   1.335   5.895   3.746 -0.4771  0.1871  0.1659
 3621WAT     H111382   1.378   5.916   3.828 -1.3231  0.0150  0.6642
 3621WAT     H211383   1.243   5.879   3.770 -0.8344  0.5669 -0.8617
 3622WAT      O11384   3.361   1.464   3.805  0.3287 -0.2830 -0.7680
 3622WAT     H111385   3.430   1.518   3.844 -0.2892  0.1251 -0.2260
 3622WAT     H211386   3.351   1.499   3.716  0.4333  0.0184 -0.6621
 3623WAT      O11387   3.116   4.820   1.569  0.3532 -0.0931 -0.1954
 3623WAT     H111388   3.091   4.783   1.654 -0.5413  0.9046 -0.0038
 3623WAT     H211389   3.148   4.907   1.589 -2.1258  1.1279 -1.0375
 3624WAT      O11390   2.097   5.025   4.377 -0.1468  0.8880 -0.1337
 3624WAT     H111391   2.164   5.025   4.445 -0.0429  0.9191 -0.2354
 3624WAT     H211392   2.115   4.947   4.325 -0.6572  0.4768  0.2927
 3625WAT      O11393   1.948   1.697   4.858  0.3196  0.1145  0.7877
 3625WAT     H111394   1.973   1.609   4.829  2.1629  0.5642  0.8672
 3625WAT     H211395   1.885   1.683   4.928 -0.7305 -1.0881 -0.3438
 3626WAT      O11396   5.118   0.797   5.057 -0.2057  0.6439  0.4138
 3626WAT     H111397   5.138   0.713   5.099  0.0727 -0.5274 -1.8611
 3626WAT     H211398   5.024   0.793   5.040 -0.1018  0.5599 -0.1531
 3627WAT      O11399   4.787   4.859   5.055  0.3714  0.7479  0.4776
 3627WAT     H111400   4.719   4.894   4.997  0.3366  0.5805  0.4170
 3627WAT     H211401   4.769   4.901   5.139 -0.1235  0.3148  0.5941
 3628WAT      O11402   2.170   0.541   2.769 -0.3596  0.5185  0.1117
 3628WAT     H111403   2.199   0.561   2.858  2.1668 -0.2121 -0.4912
 3628WAT     H211404   2.139   0.451   2.774 -0.9316  0.7211  0.3768
 3629WAT      O11405   1.315   5.982   1.628  0.1625  0.5007 -0.1505
 3629WAT     H111406   1.385   5.938   1.580 -0.3037  0.9740 -1.2984
 3629WAT     H211407   1.303   5.929   1.707 -0.0495 -1.1813 -1.2511
 3630WAT      O11408   0.792   0.380   2.747 -0.3998 -0.1954  0.5942
 3630WAT     H111409   0.882   0.371   2.779  0.1275 -0.4103 -0.8260
 3630WAT     H211410   0.742   0.409   2.822  0.9817  0.5335  1.2772
 3631WAT      O11411   3.160   4.471   3.631 -0.1248 -0.1535 -0.8157
 3631WAT     H111412   3.123   4.533   3.568  0.5058 -0.1223 -1.1648
 3631WAT     H211413   3.102   4.395   3.627 -0.3499  0.0305 -1.0960
 3632WAT      O11414   2.912   1.574   4.173  0.0515 -0.0215 -0.0429
 3632WAT     H111415   2.898   1.608   4.084 -1.3534 -2.6686 -0.9222
 3632WAT     H211416   3.006   1.555   4.176 -0.2165 -2.0922 -1.9020
 3633WAT      O11417   1.700   5.461   3.414  0.6344 -0.6946  0.4135
 3633WAT     H111418   1.778   5.442   3.466  0.9069 -1.3256 -0.2076
 3633WAT     H211419   1.654   5.377   3.411  0.9758 -0.8477 -0.9340
 3634WAT      O11420   1.946   5.743   3.262  0.0862  0.0070  0.1539
 3634WAT     H111421   1.949   5.730   3.168  1.6814 -0.8355  0.2796
 3634WAT     H211422   1.991   5.667   3.298 -0.7640  0.1562  1.6236
 3635WAT      O11423   1.919   4.965   5.349  0.1051  0.2706 -0.8774
 3635WAT     H111424   2.008   4.972   5.384 -0.6453 -1.0483  1.5482
 3635WAT     H211425   1.869   5.030   5.398 -0.4333  0.4376 -1.6362
 3636WAT      O11426   4.492   1.877   5.645 -0.2478 -0.9411 -0.5538
 3636WAT     H111427   4.547   1.813   5.599 -0.0875  1.4279 -4.1634
 3636WAT     H211428   4.555   1.942   5.678 -0.5820  0.1696 -1.9670
 3637WAT      O11429   3.506   3.749   2.093  0.1281  0.2338  0.0163
 3637WAT     H111430   3.470   3.837   2.104  0.7669  0.3679  1.1566
 3637WAT     H211431   3.464   3.698   2.162 -1.5599 -0.8080 -1.6994
 3638WAT      O11432   4.068   5.739   4.926  0.4331  0.3578 -0.2986
 3638WAT     H111433   4.114   5.694   4.855  0.5560  0.8703 -0.5451
 3638WAT     H211434   4.083   5.832   4.910 -1.5377  0.6125 -0.9933
 3639WAT      O11435   1.991   4.372   4.275  0.0650 -0.4688 -0.6287
 3639WAT     H111436   2.065   4.311   4.283  0.7009  0.2031 -1.2715
 3639WAT     H211437   1.918   4.326   4.316  0.8596 -1.1116  0.0994
 3640WAT      O11438   1.533   5.877   3.133  0.0982  0.3867  0.6356
 3640WAT     H111439   1.480   5.798   3.135  0.0138  0.3789 -0.9536
 3640WAT     H211440   1.471   5.949   3.143  0.0292  0.3045  0.7954
 3641WAT      O11441   1.949   3.890   1.892  0.2552  0.2479 -0.7003
 3641WAT     H111442   1.932   3.823   1.958 -0.8307  1.2949  0.1405
 3641WAT     H211443   2.021   3.855   1.839  0.6839 -0.9304  0.6042
 3642WAT      O11444   3.145   0.599   1.353 -0.0547  0.0719  0.3491
 3642WAT     H111445   3.052   0.580   1.351 -0.6083  2.2909 -2.3690
 3642WAT     H211446   3.156   0.660   1.426 -0.9883  0.6653  0.0104
 3643WAT      O11447   7.164   0.754   3.114 -1.0403 -0.3355  0.0350
 3643WAT     H111448   7.156   0.789   3.025 -1.3269  0.0840  0.2240
 3643WAT     H211449   7.077   0.717   3.133 -2.0873  2.5686  1.3912
 3644WAT      O11450   4.998   3.818   3.790  0.6141 -0.0856  0.2578
 3644WAT     H111451   4.977   3.905   3.754  0.6314  0.6001  1.8098
 3644WAT     H211452   4.921   3.795   3.842  0.6920 -0.9183  0.0128
 3645WAT      O11453   2.870   6.125   0.201  0.6962 -0.0300  0.5840
 3645WAT     H111454   2.797   6.117   0.141  0.4069 -0.0003  0.9249
 3645WAT     H211455   2.916   6.041   0.196 -0.3049 -0.6597  1.5709
 3646WAT      O11456   2.618   0.602   5.426  0.3870  0.2921 -0.1232
 3646WAT     H111457   2.646   0.552   5.503  0.7929 -0.1103 -0.5217
 3646WAT     H211458   2.551   0.547   5.386  1.6109 -0.4914 -1.1767
 3647WAT      O11459   2.981   5.592   3.968  0.2771  0.1400 -0.2888
 3647WAT     H111460   2.946   5.531   3.903 -0.1741  0.3551 -0.2484
 3647WAT     H211461   3.062   5.625   3.928 -1.3211  2.3171 -1.9766
 3648WAT      O11462   3.083   5.168   3.484  0.2747 -0.2030  0.3289
 3648WAT     H111463   3.093   5.100   3.550  1.4579  1.4594  1.9438
 3648WAT     H211464   3.153   5.149   3.421  0.3392 -0.6977  0.5405
 3649WAT      O11465   3.184   0.413   3.692  0.2369 -0.2042  0.1310
 3649WAT     H111466   3.221   0.501   3.682  1.8461 -0.9245 -0.7455
 3649WAT     H211467   3.090   0.427   3.704  0.2260  1.5679 -1.5286
 3650WAT      O11468   0.805   0.081   3.381  0.4456  0.0979  0.5619
 3650WAT     H111469   0.747   0.128   3.320 -0.2495 -1.0243  0.3327
 3650WAT     H211470   0.769   0.101   3.467  0.6476  0.6365  0.5280
 3651WAT      O11471   4.585   5.513   4.018 -0.2291 -0.1857 -0.6909
 3651WAT     H111472   4.614   5.603   4.013  2.5591 -0.9211  0.4458
 3651WAT     H211473   4.656   5.467   4.062 -2.3159 -2.6190  0.4222
 3652WAT      O11474   4.287   5.974   2.811  0.1648 -0.7625 -0.2890
 3652WAT     H111475   4.367   6.026   2.806 -0.4923  0.2490 -0.4281
 3652WAT     H211476   4.221   6.025   2.765 -1.2172 -0.3076  2.0408
 3653WAT      O11477   1.212   0.625   3.316 -0.1162 -0.4357  0.6984
 3653WAT     H111478   1.297   0.580   3.321  0.6623  0.8971  0.0701
 3653WAT     H211479   1.206   0.675   3.397 -0.2683 -0.4779  0.7134
 3654WAT      O11480   4.515   1.952   4.543  0.1961 -0.3548 -0.7275
 3654WAT     H111481   4.508   1.861   4.571  4.0777 -0.0522  2.0950
 3654WAT     H211482   4.455   2.000   4.601 -0.5307 -0.8975 -1.0187
 3655WAT      O11483   4.017   4.730   3.439 -0.3705 -0.0724 -0.0855
 3655WAT     H111484   4.052   4.647   3.473  1.8826  0.7705 -0.1572
 3655WAT     H211485   3.952   4.757   3.504 -0.5619 -1.4745  0.3536
 3656WAT      O11486   3.778   6.113   5.727  0.7829  0.4592  0.5463
 3656WAT     H111487   3.741   6.112   5.639  1.0382  1.8255  0.3852
 3656WAT     H211488   3.846   6.181   5.723 -0.1506  1.5659  2.1510
 3657WAT      O11489   3.849   5.222   3.691 -0.4189  0.2568 -0.0277
 3657WAT     H111490   3.940   5.192   3.695 -0.7272 -0.6634  0.4114
 3657WAT     H211491   3.838   5.274   3.771 -0.9301 -1.6247  1.1991
 3658WAT      O11492   1.313   3.861   5.216  0.2079 -0.2199  0.4798
 3658WAT     H111493   1.380   3.816   5.165 -0.4066 -1.0345  0.3820
 3658WAT     H211494   1.292   3.800   5.287  2.2428  1.5209  2.7787
 3659WAT      O11495   5.397   4.820   0.926 -0.0834 -0.5524  0.3391
 3659WAT     H111496   5.394   4.795   0.834  0.1947 -0.2238  0.2384
 3659WAT     H211497   5.421   4.740   0.972  0.4441 -0.5624  0.0535
 3660WAT      O11498   2.587   0.194   3.273  0.7893  0.3352  0.1369
 3660WAT     H111499   2.596   0.253   3.348  1.0756 -1.0638  1.2619
 3660WAT     H211500   2.545   0.115   3.310 -1.1262  0.4288 -1.6389
 3661WAT      O11501   2.413   0.169   0.219 -0.1700  0.3542  0.0366
 3661WAT     H111502   2.340   0.161   0.157 -0.2531 -0.3094  0.2160
 3661WAT     H211503   2.442   0.260   0.209 -0.7501  0.5076 -0.3387
 3662WAT      O11504   0.972   0.904   2.633  0.7086 -0.5600  0.4815
 3662WAT     H111505   0.894   0.853   2.611  0.0542  0.3803  0.5619
 3662WAT     H211506   1.021   0.909   2.551 -0.9831  1.6611 -0.4823
 3663WAT      O11507   2.984   6.084   4.712  0.7531 -0.1029 -0.3532
 3663WAT     H111508   3.069   6.040   4.709  1.0768  0.5153 -0.5206
 3663WAT     H211509   2.932   6.033   4.774  2.0195  0.8382  1.5568
 3664WAT      O11510   4.536   0.421   3.880 -0.3420 -0.2262 -0.0156
 3664WAT     H111511   4.606   0.370   3.839  0.3672 -0.9654  1.9619
 3664WAT     H211512   4.456   0.394   3.834  0.1316 -2.5141  0.3636
 3665WAT      O11513   4.442   5.975   4.117  0.0638 -0.1288  1.0167
 3665WAT     H111514   4.466   5.884   4.098  2.0657  0.6057 -0.2208
 3665WAT     H211515   4.353   5.969   4.152 -0.1607 -2.4894  0.2226
 3666WAT      O11516   6.517   3.151   4.557  0.2221 -0.1946 -0.3473
 3666WAT     H111517   6.464   3.138   4.636 -0.4775  1.4680 -0.5108
 3666WAT     H211518   6.604   3.121   4.583 -0.2833 -0.8618  0.6521
 3667WAT      O11519   1.800   4.501   4.122  0.0366  0.3480 -0.1080
 3667WAT     H111520   1.882   4.477   4.166  0.2002  0.7206 -0.2046
 3667WAT     H211521   1.771   4.420   4.080 -0.1410 -0.0262  0.7124
 3668WAT      O11522   3.815   5.790   5.064 -0.6766 -0.3627 -0.4203
 3668WAT     H111523   3.896   5.771   5.017 -0.3519  1.5170 -0.7007
 3668WAT     H211524   3.767   5.707   5.064  0.2640 -0.9534 -2.2073
 3669WAT      O11525   3.342   3.780   2.992 -0.2288 -0.3775  0.2386
 3669WAT     H111526   3.307   3.752   2.908 -0.8728 -0.0054  0.3776
 3669WAT     H211527   3.332   3.875   2.991 -2.4163 -0.5247  1.6607
 3670WAT      O11528   5.117   5.094   4.694 -0.5790  0.0521  0.3877
 3670WAT     H111529   5.164   5.012   4.710  0.4707  0.5635  0.0200
 3670WAT     H211530   5.124   5.142   4.776  0.2967  0.4805  0.0780
 3671WAT      O11531   2.155   3.378   2.673 -0.1879  0.2364 -0.9361
 3671WAT     H111532   2.087   3.364   2.607  0.7041 -2.4103 -1.4239
 3671WAT     H211533   2.229   3.412   2.623  0.0999 -0.6391 -1.1222
 3672WAT      O11534   1.935   0.559   5.241  0.0109  0.6334 -0.3948
 3672WAT     H111535   1.885   0.565   5.160  0.7688  0.6764 -0.8697
 3672WAT     H211536   1.923   0.644   5.283  1.5799  1.5304 -1.6576
 3673WAT      O11537   3.861   0.613   3.841  0.8017  0.1413 -0.0854
 3673WAT     H111538   3.897   0.701   3.854  0.3122  0.2971  0.2564
 3673WAT     H211539   3.835   0.612   3.749 -0.7033  0.9463  0.2968
 3674WAT      O11540   3.159   4.020   4.155  0.0534  0.5646  0.5070
 3674WAT     H111541   3.230   3.956   4.142 -0.0225  0.6489 -0.4260
 3674WAT     H211542   3.081   3.975   4.123 -0.2583  0.5965  1.2159
 3675WAT      O11543   2.891   0.344   0.197 -0.1300  0.4038  0.1047
 3675WAT     H111544   2.845   0.425   0.178 -0.3115  0.4573  0.7576
 3675WAT     H211545   2.916   0.351   0.289  0.4449  0.0117 -0.0165
 3676WAT      O11546   3.533   4.036   1.735 -0.2226 -0.2426  0.3998
 3676WAT     H111547   3.460   3.977   1.754  0.2408 -1.8883 -2.2588
 3676WAT     H211548   3.606   3.999   1.784 -0.1289 -1.4543 -0.6070
 3677WAT      O11549   1.964   4.015   0.947  0.4850 -0.0081  0.5537
 3677WAT     H111550   1.935   3.938   0.898  1.0353 -0.0802  0.3318
 3677WAT     H211551   1.886   4.071   0.952  0.3534 -0.1145 -0.1854
 3678WAT      O11552   0.985   0.432   3.219  0.4537  0.2202  0.3067
 3678WAT     H111553   1.003   0.386   3.137 -0.4815 -0.3676  0.4145
 3678WAT     H211554   1.052   0.501   3.223 -0.5004  1.3532 -1.7643
 3679WAT      O11555   2.105   0.351   3.137 -0.3543 -0.1928  0.1475
 3679WAT     H111556   2.129   0.265   3.173  0.4263  0.6493  1.7529
 3679WAT     H211557   2.035   0.382   3.195 -1.0251  0.0317 -0.7634
 3680WAT      O11558   3.465   5.167   1.787  0.2984  0.0650 -0.3496
 3680WAT     H111559   3.395   5.157   1.851  0.0169 -1.1022 -0.8146
 3680WAT     H211560   3.467   5.083   1.740  1.7924  0.1746 -0.5525
 3681WAT      O11561   2.201   5.032   1.026  0.0138 -0.2016  0.3523
 3681WAT     H111562   2.211   5.124   1.050 -1.5822  0.1343 -0.1829
 3681WAT     H211563   2.193   4.986   1.110  1.0049  0.0898  0.6282
 3682WAT      O11564   4.935   5.755   3.971 -0.3886 -1.4310 -0.1006
 3682WAT     H111565   5.013   5.787   4.017 -1.0556 -2.3535  1.8222
 3682WAT     H211566   4.943   5.788   3.882  2.5386 -2.0709 -0.1650
 3683WAT      O11567   4.308   5.538   2.469  0.2571 -0.3666  0.3096
 3683WAT     H111568   4.309   5.575   2.557  1.9772  2.4157 -0.7316
 3683WAT     H211569   4.269   5.607   2.415 -0.0721 -1.7095 -1.2245
 3684WAT      O11570   2.630   5.943   4.286  0.7976 -0.9213 -0.2857
 3684WAT     H111571   2.581   6.005   4.340  0.3566 -1.1272 -0.4473
 3684WAT     H211572   2.704   5.994   4.253 -0.1409 -0.1689 -1.2951
 3685WAT      O11573   2.740   5.392   2.463  0.2459 -0.1464 -0.0115
 3685WAT     H111574   2.826   5.433   2.469 -0.7067  2.1167 -1.0815
 3685WAT     H211575   2.696   5.417   2.544  0.0828 -0.0633 -0.1251
 3686WAT      O11576   4.374   4.524   1.587  0.0735 -0.1831 -0.1178
 3686WAT     H111577   4.296   4.559   1.629 -0.6317 -2.0355  0.2242
 3686WAT     H211578   4.438   4.516   1.658  0.1801  0.2219 -0.1650
 3687WAT      O11579   4.862   5.159   4.030 -0.1865 -1.1020 -0.0200
 3687WAT     H111580   4.887   5.140   3.939  0.3761  0.1425 -0.1509
 3687WAT     H211581   4.863   5.255   4.035 -1.0156 -1.1315  1.0893
 3688WAT      O11582   2.082   4.469   3.758  0.4633  0.0062 -0.9155
 3688WAT     H111583   2.089   4.564   3.767  1.3474 -0.0719 -0.6944
 3688WAT     H211584   2.115   4.434   3.841 -0.6011 -0.4814 -0.6792
 3689WAT      O11585   4.766   5.052   2.172 -0.3114 -0.4690 -0.0663
 3689WAT     H111586   4.754   5.070   2.266  1.3429 -1.6917  0.4180
 3689WAT     H211587   4.754   4.958   2.164 -0.6764 -0.3427 -1.1451
 3690WAT      O11588   3.371   4.811   3.485  0.3456  0.5282  1.2068
 3690WAT     H111589   3.282   4.837   3.511  0.8642  0.4029  3.2899
 3690WAT     H211590   3.380   4.845   3.396 -1.7030  0.7446  1.0177
 3691WAT      O11591   2.629   4.628   0.575  0.3422  0.2868  0.3639
 3691WAT     H111592   2.602   4.719   0.573  0.2980  0.2713 -0.4506
 3691WAT     H211593   2.548   4.580   0.595  0.8296  0.5452  3.3551
 3692WAT      O11594   3.415   5.399   0.844  0.0076 -0.1653 -0.6796
 3692WAT     H111595   3.348   5.332   0.843  0.8492 -1.0244 -1.9678
 3692WAT     H211596   3.433   5.413   0.937 -3.2932  1.5506 -0.1435
 3693WAT      O11597   4.280   4.821   5.018  0.3324 -0.1843  0.1116
 3693WAT     H111598   4.291   4.914   5.036 -1.0362  0.2629 -1.1181
 3693WAT     H211599   4.186   4.806   5.027  0.6523 -1.6793  1.2245
 3694WAT      O11600   1.530   5.490   3.197 -0.0686 -0.1912 -0.1053
 3694WAT     H111601   1.530   5.401   3.164  1.2171 -0.1222 -0.3360
 3694WAT     H211602   1.587   5.488   3.274 -1.6136  0.0267  1.1041
 3695WAT      O11603   4.183   5.808   1.676 -0.2542  0.1437  0.2803
 3695WAT     H111604   4.110   5.771   1.627  0.0732 -1.2620  0.8130
 3695WAT     H211605   4.172   5.903   1.667  0.8349  0.0671 -4.1186
 3696WAT      O11606   3.480   4.244   5.814  0.0305 -0.4539  0.3320
 3696WAT     H111607   3.483   4.168   5.756 -0.3408  0.8839 -1.5767
 3696WAT     H211608   3.468   4.318   5.754 -2.9997  0.8407  2.3000
 3697WAT      O11609   2.157   4.474   1.543 -0.4774 -0.6003 -0.3974
 3697WAT     H111610   2.205   4.548   1.505 -1.7419  0.4272 -0.0593
 3697WAT     H211611   2.145   4.413   1.470  0.3416 -0.3625 -0.7447
 3698WAT      O11612   4.234   0.818   2.236  0.7181 -0.2139  0.5059
 3698WAT     H111613   4.259   0.739   2.283 -1.8145 -0.2511  1.9751
 3698WAT     H211614   4.140   0.826   2.250  0.8046  2.8936  0.1351
 3699WAT      O11615   2.207   4.120   0.930 -0.0850 -0.8765  0.0220
 3699WAT     H111616   2.124   4.081   0.959 -0.1052 -0.1611  0.9762
 3699WAT     H211617   2.181   4.182   0.862 -0.3622 -0.4647  0.5012
 3700WAT      O11618   4.737   5.504   2.450 -0.2105 -0.1478 -0.3361
 3700WAT     H111619   4.800   5.525   2.380 -0.5463 -0.1742 -0.6473
 3700WAT     H211620   4.652   5.508   2.407 -0.5098  0.9342  0.3340
 3701WAT      O11621   4.283   0.506   4.965  0.1894  0.0737  0.6681
 3701WAT     H111622   4.293   0.472   5.053  2.3896  0.0299  0.4632
 3701WAT     H211623   4.268   0.429   4.910  0.7828 -0.1135  0.7649
 3702WAT      O11624   3.470   6.100   3.480 -0.0358  0.6465  0.0840
 3702WAT     H111625   3.469   6.006   3.499  1.0169  0.6783  0.3623
 3702WAT     H211626   3.379   6.121   3.459 -0.4386 -0.2607  0.8577
 3703WAT      O11627   2.803   3.850   2.148  0.6155 -0.3226  0.3415
 3703WAT     H111628   2.716   3.860   2.112  0.5720  0.6062  0.6918
 3703WAT     H211629   2.861   3.849   2.072  0.2122 -2.4403 -0.0120
 3704WAT      O11630   3.380   3.762   2.337 -0.2325 -0.3326 -0.3240
 3704WAT     H111631   3.324   3.688   2.359 -2.4275  1.6588  1.4384
 3704WAT     H211632   3.448   3.762   2.405 -1.2141  0.1519  0.6988
 3705WAT      O11633   3.433   0.133   2.760 -0.1006 -0.2715  0.0200
 3705WAT     H111634   3.517   0.105   2.726 -0.5066 -0.0747 -1.1939
 3705WAT     H211635   3.440   0.122   2.855  1.2017 -0.4603 -0.0895
 3706WAT      O11636   3.406   5.069   2.664  0.9180  0.1823 -0.0020
 3706WAT     H111637   3.342   5.001   2.683  1.6835 -0.8199 -0.9405
 3706WAT     H211638   3.490   5.030   2.686  1.2706  1.4073  1.0066
 3707WAT      O11639   2.764   5.961   3.060 -0.5690  0.0943  0.4354
 3707WAT     H111640   2.796   6.021   3.127  0.8745 -0.8543  0.6269
 3707WAT     H211641   2.682   5.926   3.096 -0.0433 -0.0620  1.5173
 3708WAT      O11642   4.896   5.578   2.229 -0.0315 -0.0781 -0.0910
 3708WAT     H111643   4.953   5.506   2.202  3.0854  1.6355  1.3998
 3708WAT     H211644   4.923   5.651   2.174 -1.7757  0.5089 -0.2224
 3709WAT      O11645   3.116   0.260   4.860 -0.2025  0.1227 -0.0414
 3709WAT     H111646   3.051   0.192   4.844 -0.2379  0.3406 -0.8587
 3709WAT     H211647   3.153   0.279   4.773  1.2622 -0.3183  0.4601
 3710WAT      O11648   1.770   5.877   4.219  0.0552 -0.5425 -0.0982
 3710WAT     H111649   1.816   5.797   4.197 -2.9986 -1.9946 -1.9165
 3710WAT     H211650   1.766   5.926   4.136  0.9171  1.0228  0.7356
 3711WAT      O11651   2.401   1.233   0.788  0.2668  0.3798  0.4290
 3711WAT     H111652   2.372   1.309   0.840  0.3887  1.6072 -1.2201
 3711WAT     H211653   2.373   1.253   0.699  2.4131 -0.3813 -0.4742
 3712WAT      O11654   3.085   4.395   1.322 -0.0398 -0.5735 -0.4122
 3712WAT     H111655   3.175   4.361   1.318  0.8638  0.9472  2.8239
 3712WAT     H211656   3.096   4.490   1.317 -1.5230 -0.3760 -0.3754
 3713WAT      O11657   3.157   4.641   1.372  0.5090 -0.0795 -0.2611
 3713WAT     H111658   3.251   4.653   1.363  0.5317  0.0313  0.0973
 3713WAT     H211659   3.131   4.705   1.439  0.3785 -0.9580  0.5430
 3714WAT      O11660   3.300   5.832   3.733  0.3320  0.0037 -0.4163
 3714WAT     H111661   3.337   5.828   3.645  0.4308 -0.3869 -0.3608
 3714WAT     H211662   3.310   5.923   3.759  2.1855 -0.2640 -0.0322
 3715WAT      O11663   1.801   5.450   2.629 -0.2537 -0.0325  0.0770
 3715WAT     H111664   1.755   5.443   2.713 -0.6447 -1.2128 -0.2179
 3715WAT     H211665   1.893   5.460   2.652 -0.5331  1.4347  0.6624
 3716WAT      O11666   3.329   5.775   2.169 -0.1685 -0.1485  0.4225
 3716WAT     H111667   3.315   5.830   2.246 -0.0323  0.9596 -0.3225
 3716WAT     H211668   3.263   5.804   2.107  0.3359 -0.3696 -0.2298
 3717WAT      O11669   5.634   4.650   2.490  0.0927 -0.4798  0.6909
 3717WAT     H111670   5.691   4.573   2.487  1.6686  0.6416 -1.3316
 3717WAT     H211671   5.670   4.702   2.562 -0.3859 -1.1671  1.4486
 3718WAT      O11672   2.052   0.506   0.365  0.4642  0.4559  0.6321
 3718WAT     H111673   2.126   0.559   0.396 -0.1000  1.3446  0.4821
 3718WAT     H211674   2.029   0.452   0.441  1.3958  0.0099  0.6162
 3719WAT      O11675   5.558   4.097   2.604  0.3616  0.0873 -0.5528
 3719WAT     H111676   5.580   4.171   2.549  0.0643 -0.5536 -1.5583
 3719WAT     H211677   5.629   4.094   2.669  2.1749 -0.6720 -2.4514
 3720WAT      O11678   2.603   4.473   1.515 -0.5783  0.0307 -0.3465
 3720WAT     H111679   2.642   4.478   1.427 -0.0683 -1.2275 -0.2183
 3720WAT     H211680   2.592   4.379   1.530  0.0624  0.1886  1.2536
 3721WAT      O11681   2.511   5.821   0.769 -0.1272  0.6812  0.9323
 3721WAT     H111682   2.526   5.736   0.810 -1.7264 -1.3610 -2.2614
 3721WAT     H211683   2.423   5.813   0.731  0.6924  2.7338 -1.6757
 3722WAT      O11684   3.760   0.493   4.554 -0.8553 -0.0843 -0.0816
 3722WAT     H111685   3.687   0.549   4.530  0.6095  2.0770  0.2201
 3722WAT     H211686   3.812   0.487   4.474  1.1524  2.5496  0.8905
 3723WAT      O11687   3.418   4.609   1.296  0.7426 -0.0513  0.5772
 3723WAT     H111688   3.495   4.590   1.349  0.5307 -0.8777  0.6066
 3723WAT     H211689   3.390   4.524   1.262  0.2003  0.3167  0.0740
 3724WAT      O11690   2.902   4.711   1.828  0.3791 -0.3975 -0.0448
 3724WAT     H111691   2.838   4.772   1.866  0.2995 -0.6582  0.2424
 3724WAT     H211692   2.984   4.760   1.827  0.0659  0.1485 -0.9452
 3725WAT      O11693   3.750   5.853   3.373 -0.5383  0.5273  0.2077
 3725WAT     H111694   3.730   5.802   3.452  0.4733  1.0675  0.8354
 3725WAT     H211695   3.683   5.827   3.310 -0.1464 -1.4718  0.5496
 3726WAT      O11696   2.510   6.070   2.273 -0.1177 -0.2243  0.5613
 3726WAT     H111697   2.450   6.075   2.198 -2.6641 -2.5572  2.2339
 3726WAT     H211698   2.570   5.999   2.251  0.4266  0.4333 -0.0878
 3727WAT      O11699   3.648   4.309   2.272  0.2035 -0.2782 -0.5572
 3727WAT     H111700   3.587   4.271   2.209  0.3802  2.0995 -2.3312
 3727WAT     H211701   3.595   4.326   2.350 -0.7267 -0.7213 -1.0737
 3728WAT      O11702   2.138   5.738   1.257  0.4118  0.7804  0.4193
 3728WAT     H111703   2.144   5.791   1.336  0.4776 -0.6063  1.3767
 3728WAT     H211704   2.202   5.777   1.197  2.0770  0.4723  1.9036
 3729WAT      O11705   0.060   5.002   1.876 -0.5532  0.1936 -0.2499
 3729WAT     H111706   0.063   5.033   1.786  1.4756  0.0003 -0.2929
 3729WAT     H211707   0.004   5.064   1.921 -1.5388  0.3402 -1.6107
 3730WAT      O11708   3.326   5.524   4.497 -0.9766  0.0594  0.3849
 3730WAT     H111709   3.315   5.611   4.458  0.4245 -0.2065 -0.6704
 3730WAT     H211710   3.264   5.468   4.451 -0.4232  0.0741 -0.3827
 3731WAT      O11711   2.126   5.928   2.444  0.1769  0.1848 -0.0191
 3731WAT     H111712   2.150   5.917   2.352 -0.3650 -0.1536 -0.1252
 3731WAT     H211713   2.040   5.970   2.442 -0.1313 -0.4105  0.3165
 3732WAT      O11714   2.333   0.889   1.771  0.0754 -0.4010  0.0189
 3732WAT     H111715   2.335   0.941   1.691 -1.6250 -1.9228 -1.0574
 3732WAT     H211716   2.423   0.896   1.805  0.7202  0.6542 -1.7354
 3733WAT      O11717   2.137   4.312   2.316 -0.1538 -0.4675  0.3043
 3733WAT     H111718   2.149   4.233   2.368 -1.6025 -0.8651  0.1041
 3733WAT     H211719   2.186   4.295   2.235  1.5530 -0.1198  1.2255
 3734WAT      O11720   5.538   4.591   3.679 -0.0742  0.4881  0.0126
 3734WAT     H111721   5.580   4.566   3.761 -1.6800 -1.9620  0.1653
 3734WAT     H211722   5.532   4.687   3.684  2.0851  0.6102  1.5840
 3735WAT      O11723   3.563   5.401   0.579  0.7861 -0.1704 -0.4714
 3735WAT     H111724   3.609   5.317   0.582  1.1933  0.0300 -0.9725
 3735WAT     H211725   3.538   5.418   0.670  0.3351 -1.0290 -0.4261
 3736WAT      O11726   2.697   4.216   1.602  0.5588  0.1904  0.1976
 3736WAT     H111727   2.612   4.178   1.578  0.5797  0.2048  0.0995
 3736WAT     H211728   2.759   4.175   1.542  0.7403 -0.3980  0.7699
 3737WAT      O11729   2.948   4.709   2.242 -0.4359  0.0811 -0.7301
 3737WAT     H111730   2.937   4.772   2.314  0.4595 -0.1724 -0.3594
 3737WAT     H211731   2.895   4.745   2.172  0.5840  1.6478 -0.7552
 3738WAT      O11732   2.338   0.540   3.450 -0.1450  0.5889  0.8931
 3738WAT     H111733   2.286   0.602   3.501 -0.7602 -0.0687  1.0907
 3738WAT     H211734   2.362   0.471   3.512  0.4320  0.5626  0.6529
 3739WAT      O11735   2.445   5.972   0.470 -0.1977 -0.2068 -0.3196
 3739WAT     H111736   2.372   6.005   0.522  0.2621  1.2141 -0.5030
 3739WAT     H211737   2.432   6.012   0.384  1.2468  0.8434 -0.1068
 3740WAT      O11738   0.736   5.452   2.864  0.3523  0.4726  0.4270
 3740WAT     H111739   0.676   5.523   2.887 -0.6736 -0.2324 -0.0035
 3740WAT     H211740   0.741   5.398   2.943 -1.5510 -0.8093 -0.2365
 3741WAT      O11741   5.578   1.186   3.236  0.1908 -0.1739  0.2934
 3741WAT     H111742   5.569   1.135   3.155 -1.8158  2.2458 -1.1863
 3741WAT     H211743   5.594   1.275   3.206  1.7632  0.4422  2.7063
 3742WAT      O11744   2.963   6.068   1.758  0.4387  0.1697  0.4619
 3742WAT     H111745   3.035   6.015   1.725  0.7979  0.3269  0.9842
 3742WAT     H211746   2.921   6.013   1.825  0.6137  0.4127  0.7761
 3743WAT      O11747   3.102   3.963   5.876 -0.2418  0.0012 -0.2591
 3743WAT     H111748   3.185   3.963   5.923  0.0309 -0.2916 -0.7256
 3743WAT     H211749   3.068   4.052   5.886  0.2194  0.1758 -0.2248
 3744WAT      O11750   2.351   0.968   3.212  0.3586  0.0506  0.3839
 3744WAT     H111751   2.413   0.897   3.193  0.1851 -0.5842  2.0003
 3744WAT     H211752   2.338   0.963   3.307 -1.1388  1.0272  0.2621
 3745WAT      O11753   2.082   5.299   2.142  0.2885  0.5216  0.3016
 3745WAT     H111754   2.147   5.310   2.212 -0.0103  0.1181  0.6456
 3745WAT     H211755   2.070   5.387   2.107 -2.3211  1.5025  3.2259
 3746WAT      O11756   4.433   4.193   4.062 -0.2673  0.2911 -0.0365
 3746WAT     H111757   4.486   4.113   4.067 -1.9389 -0.7893  1.8279
 3746WAT     H211758   4.497   4.264   4.061  1.2795 -0.9474  2.0990
 3747WAT      O11759   2.646   4.437   2.727 -0.5031 -0.1517 -0.6345
 3747WAT     H111760   2.596   4.507   2.685 -0.7050  0.5622  0.7136
 3747WAT     H211761   2.616   4.357   2.686 -3.9521  0.0680  1.1349
 3748WAT      O11762   3.129   4.289   1.925  0.6222 -0.1758 -0.3371
 3748WAT     H111763   3.082   4.289   2.008  1.1773  1.1594  0.0045
 3748WAT     H211764   3.060   4.281   1.859  0.2015 -1.5718  0.2377
 3749WAT      O11765   4.791   5.339   2.633 -0.0290 -0.2827  0.1791
 3749WAT     H111766   4.711   5.344   2.685 -0.2102  1.3332 -0.1929
 3749WAT     H211767   4.780   5.407   2.567  1.2765 -0.6386 -0.4272
 3750WAT      O11768   2.831   0.310   3.061 -0.2285  0.8226 -0.3517
 3750WAT     H111769   2.880   0.359   2.995 -1.6152  2.1144 -0.4755
 3750WAT     H211770   2.835   0.365   3.139 -0.6656  0.4781 -0.0810
 3751WAT      O11771   5.056   5.315   2.687  0.5540  0.5902 -0.0083
 3751WAT     H111772   5.078   5.388   2.746  0.1812 -0.6499  1.7328
 3751WAT     H211773   4.961   5.317   2.681  0.4357 -0.4891  1.0934
 3752WAT      O11774   2.280   4.846   0.854  0.8201 -0.2453  0.0113
 3752WAT     H111775   2.373   4.862   0.840  0.2259  2.4807 -1.3797
 3752WAT     H211776   2.253   4.912   0.918 -0.3246 -0.4210 -0.2576
 3753WAT      O11777   2.179   4.552   2.156 -0.6195  0.5958 -0.3589
 3753WAT     H111778   2.094   4.514   2.180 -0.1406 -1.7358 -1.9269
 3753WAT     H211779   2.170   4.572   2.063  0.8826 -0.8766 -0.8714
 3754WAT      O11780   1.901   4.217   3.609 -0.4540  0.5943  0.2025
 3754WAT     H111781   1.954   4.292   3.636 -0.8717  0.9923 -0.0708
 3754WAT     H211782   1.858   4.246   3.529  0.6830 -0.5194 -0.8771
 3755WAT      O11783   1.696   5.638   3.668  0.1022  0.2799  0.6444
 3755WAT     H111784   1.657   5.596   3.592 -0.9395 -0.2759  1.4580
 3755WAT     H211785   1.633   5.623   3.739  0.5491  1.6744  1.3829
 3756WAT      O11786   3.414   5.566   5.298  0.0801  0.0940 -0.5284
 3756WAT     H111787   3.416   5.662   5.289  1.6833 -0.0162 -1.7602
 3756WAT     H211788   3.452   5.549   5.384 -1.1869  0.5745  0.1586
 3757WAT      O11789   3.414   4.694   2.657  0.0554 -0.4764  0.4121
 3757WAT     H111790   3.461   4.734   2.584  0.8181 -0.2388  1.0178
 3757WAT     H211791   3.383   4.768   2.709 -0.9517 -0.6346  0.0467
 3758WAT      O11792   1.632   5.383   1.572 -0.1540  0.6974 -0.4003
 3758WAT     H111793   1.691   5.328   1.521 -0.4048  0.1438 -0.1031
 3758WAT     H211794   1.545   5.346   1.555 -0.3360  1.0745 -0.2878
 3759WAT      O11795   3.445   5.968   0.737  0.0182 -0.0483 -1.0049
 3759WAT     H111796   3.478   5.929   0.818 -1.7353  1.2699  0.4236
 3759WAT     H211797   3.516   5.956   0.674  1.3575 -1.3022  0.6608
 3760WAT      O11798   2.364   0.083   4.213 -0.8018 -0.3104  0.1430
 3760WAT     H111799   2.312   0.010   4.180  0.1660 -1.0157  0.1705
 3760WAT     H211800   2.439   0.088   4.155  0.9005 -1.5295  2.0900
 3761WAT      O11801   5.802   4.619   4.292 -0.0858  0.0599 -0.1441
 3761WAT     H111802   5.726   4.577   4.332  0.0218  0.7442  0.7939
 3761WAT     H211803   5.780   4.712   4.289  0.1585  0.0965 -1.1330
 3762WAT      O11804   3.223   4.678   2.254 -0.0107 -0.4359  0.0393
 3762WAT     H111805   3.215   4.764   2.296 -0.3245 -1.1743  1.5729
 3762WAT     H211806   3.132   4.649   2.243  0.0951 -0.5627 -0.5206
 3763WAT      O11807   4.177   5.603   1.348  0.4217 -0.7420 -0.1499
 3763WAT     H111808   4.247   5.558   1.395  0.4120 -0.2594  0.3350
 3763WAT     H211809   4.171   5.557   1.264  0.8201 -1.2531  0.0958
 3764WAT      O11810   1.173   1.185   2.977 -0.3509  0.1748 -0.4439
 3764WAT     H111811   1.256   1.164   2.934  0.3825  0.4779  0.7499
 3764WAT     H211812   1.199   1.206   3.067 -1.5335  1.9427 -0.4796
 3765WAT      O11813   0.199   5.199   2.283  0.2556  0.9008 -0.2479
 3765WAT     H111814   0.268   5.222   2.220 -0.1946  0.1695 -1.0462
 3765WAT     H211815   0.122   5.246   2.252  0.4710  2.0088  0.8589
 3766WAT      O11816   2.229   5.614   2.184 -0.3374  0.2665  0.2409
 3766WAT     H111817   2.223   5.602   2.089  0.2078  0.7493  0.1404
 3766WAT     H211818   2.239   5.709   2.195  0.0460  0.1669  0.7575
 3767WAT      O11819   4.540   6.000   0.771 -0.3097 -0.7829  0.0130
 3767WAT     H111820   4.632   6.005   0.797 -0.3253  2.5588 -0.2340
 3767WAT     H211821   4.492   6.006   0.854 -0.2927  0.5537 -0.0586
 3768WAT      O11822   0.223   6.121   2.151  0.0236  0.4805  0.2507
 3768WAT     H111823   0.127   6.125   2.152 -0.2053 -2.0608 -1.7440
 3768WAT     H211824   0.245   6.061   2.222 -0.0803 -0.7652 -0.7352
 3769WAT      O11825   4.655   4.565   2.773  0.1808 -0.4093  0.9097
 3769WAT     H111826   4.738   4.608   2.754  0.2676 -0.7905  0.3996
 3769WAT     H211827   4.610   4.625   2.832 -0.2355  1.0210 -0.7580
 3770WAT      O11828   5.848   4.542   3.682 -0.3735 -0.1736  0.1848
 3770WAT     H111829   5.887   4.494   3.609 -0.5646  1.5806 -1.1370
 3770WAT     H211830   5.858   4.634   3.658 -0.7773  0.4487  2.2212
 3771WAT      O11831   3.963   3.867   0.100 -0.2357 -0.5210 -0.4190
 3771WAT     H111832   3.996   3.871   0.189  0.3853  1.1985 -0.6952
 3771WAT     H211833   3.871   3.892   0.107 -0.5553 -1.7532 -0.1009
 3772WAT      O11834   4.469   3.790   0.688 -0.3708  0.1971  0.2253
 3772WAT     H111835   4.469   3.874   0.734  0.5702  0.4021 -0.1161
 3772WAT     H211836   4.503   3.811   0.601  0.1057 -0.5715  0.2162
 3773WAT      O11837   1.749   1.150   2.289 -0.1228  0.6402  0.1328
 3773WAT     H111838   1.729   1.057   2.302 -1.9899  0.7895 -1.3211
 3773WAT     H211839   1.814   1.169   2.357 -1.9347 -0.9883  2.5010
 3774WAT      O11840   2.883   4.794   4.186  0.4008  0.0523 -0.1906
 3774WAT     H111841   2.839   4.710   4.193  1.4754 -0.5606 -0.5169
 3774WAT     H211842   2.822   4.849   4.138 -1.7732  0.5344  2.8079
 3775WAT      O11843   5.115   5.022   2.494 -0.2869  0.5831  0.3136
 3775WAT     H111844   5.205   4.994   2.510 -0.5362 -0.5702 -0.1847
 3775WAT     H211845   5.067   4.940   2.479 -1.8798  0.9393  2.7835
 3776WAT      O11846   3.789   4.115   1.045  0.1925  0.1458  0.5191
 3776WAT     H111847   3.810   4.132   1.137  1.3440 -0.5294  0.3991
 3776WAT     H211848   3.693   4.115   1.043  0.0355 -2.3658  2.2596
 3777WAT      O11849   3.423   4.909   3.235  0.0667 -0.0126  0.9495
 3777WAT     H111850   3.402   4.827   3.190 -0.3563  0.6903 -0.1801
 3777WAT     H211851   3.515   4.899   3.260  0.0500 -0.7971  0.7526
 3778WAT      O11852   2.190   4.287   2.966  0.1352  0.5149  0.3049
 3778WAT     H111853   2.265   4.235   2.995 -0.0553  0.5043  0.7879
 3778WAT     H211854   2.123   4.270   3.032 -0.0542  1.0799  0.2572
 3779WAT      O11855   3.547   1.392   0.691  0.2893 -0.3426  0.0052
 3779WAT     H111856   3.505   1.308   0.670 -0.6210 -0.0426  0.5763
 3779WAT     H211857   3.541   1.399   0.786 -2.2406  1.6496 -0.1870
 3780WAT      O11858   4.020   1.741   2.554 -0.6734  0.2046  0.4051
 3780WAT     H111859   3.949   1.711   2.610  0.0494  0.7526  1.6465
 3780WAT     H211860   4.029   1.672   2.488 -0.2738 -1.4531  2.1021
 3781WAT      O11861   3.108   3.819   2.243 -0.1272  0.4348  0.0556
 3781WAT     H111862   3.203   3.824   2.251  0.1388 -2.0428 -0.6307
 3781WAT     H211863   3.093   3.798   2.151 -1.2534 -0.2939  0.3852
 3782WAT      O11864   0.995   5.304   3.292  0.0794  0.0435 -0.0222
 3782WAT     H111865   1.035   5.367   3.232  0.6076  0.4173  0.7063
 3782WAT     H211866   1.058   5.233   3.297  0.8900  0.8133  1.4383
 3783WAT      O11867   2.775   3.734   1.892  0.1568 -0.2051  0.4237
 3783WAT     H111868   2.703   3.674   1.910  0.3374 -0.7036 -0.4730
 3783WAT     H211869   2.791   3.725   1.799  2.1832 -0.9888  0.8085
 3784WAT      O11870   2.890   4.588   3.977  0.6593 -0.0459 -0.0841
 3784WAT     H111871   2.838   4.583   3.898 -1.2733 -1.3169  1.1821
 3784WAT     H211872   2.916   4.680   3.984 -1.3336  0.6027 -0.8414
 3785WAT      O11873   3.053   5.542   1.527 -0.7116 -0.2414 -0.9756
 3785WAT     H111874   3.102   5.617   1.495 -0.3177  0.1557  0.4978
 3785WAT     H211875   3.090   5.467   1.480 -0.5931  0.3798 -1.8910
 3786WAT      O11876   2.010   3.956   3.661 -0.8340  0.6997 -0.3298
 3786WAT     H111877   2.101   3.963   3.630 -1.2526 -0.7979 -2.1295
 3786WAT     H211878   1.977   4.045   3.659  0.9522  1.4910  1.6722
 3787WAT      O11879   3.531   4.547   1.969 -0.3183 -0.0711  0.2756
 3787WAT     H111880   3.613   4.498   1.967  1.5460  2.8333 -0.0959
 3787WAT     H211881   3.518   4.566   2.062  0.6223  1.2332  0.1647
 3788WAT      O11882   2.353   0.528   3.156 -0.0321  0.1540  0.1623
 3788WAT     H111883   2.369   0.525   3.250 -2.1695  0.1013  0.5687
 3788WAT     H211884   2.284   0.463   3.141  2.3773 -2.1846 -1.9804
 3789WAT      O11885   4.664   4.001   3.896  0.0774  0.1570  0.3113
 3789WAT     H111886   4.679   3.979   3.804 -0.4428 -0.0971  0.2842
 3789WAT     H211887   4.687   3.921   3.943 -1.6815 -0.4465  0.2250
 3790WAT      O11888   2.900   4.811   1.331 -0.0732  0.0705 -0.1441
 3790WAT     H111889   2.869   4.774   1.414  1.2161  1.7847  1.1867
 3790WAT     H211890   2.996   4.806   1.337  0.0966  1.7952 -0.7040
 3791WAT      O11891   3.055   1.177   5.458  0.0423  0.2828  0.1085
 3791WAT     H111892   3.146   1.206   5.459  0.1727 -0.1197  0.0731
 3791WAT     H211893   3.039   1.150   5.368  0.6611 -2.0249  0.6236
 3792WAT      O11894   2.985   4.104   1.554 -0.5394 -0.7523  0.3773
 3792WAT     H111895   2.982   4.073   1.644 -1.6087 -0.5470  0.4200
 3792WAT     H211896   3.072   4.143   1.545 -1.8144  3.3273  2.7179
 3793WAT      O11897   2.812   6.066   5.446  0.2506 -0.0607 -0.1921
 3793WAT     H111898   2.756   6.004   5.399 -0.8579  0.6252  0.1944
 3793WAT     H211899   2.898   6.057   5.404 -0.4959 -0.0821 -1.7690
 3794WAT      O11900   3.345   4.809   5.021 -0.1332 -0.8984 -0.1239
 3794WAT     H111901   3.335   4.794   4.927 -1.6023  0.2314 -0.1825
 3794WAT     H211902   3.417   4.871   5.028 -1.8699  1.3511 -0.7947
 3795WAT      O11903   1.935   0.029   1.118 -0.0118  0.3445 -0.3388
 3795WAT     H111904   1.857   0.016   1.064  0.0359 -1.4796 -0.0417
 3795WAT     H211905   2.006  -0.007   1.066  0.9984  3.4059 -1.2947
 3796WAT      O11906   3.768   4.868   2.126 -0.1635  0.8545 -0.3216
 3796WAT     H111907   3.836   4.925   2.162  0.3471  0.5472 -0.7897
 3796WAT     H211908   3.762   4.796   2.189  1.9223 -0.5702 -1.6176
 3797WAT      O11909   3.630   4.936   1.842 -0.2177 -0.2037  0.0813
 3797WAT     H111910   3.702   4.939   1.905 -0.9617 -0.1934  0.9499
 3797WAT     H211911   3.571   5.007   1.869 -1.7327 -1.6821  0.8677
 3798WAT      O11912   2.756   0.118   5.618 -0.2710  0.4900 -0.5489
 3798WAT     H111913   2.693   0.088   5.683  0.0221 -0.8010 -0.8285
 3798WAT     H211914   2.748   0.055   5.546 -0.9816  2.1923 -2.0353
 3799WAT      O11915   3.731   5.092   1.429  0.8642 -0.0128 -0.1920
 3799WAT     H111916   3.749   5.135   1.345  1.0504  1.6813  0.6750
 3799WAT     H211917   3.672   5.152   1.474 -0.4606 -1.6219  0.3165
 3800WAT      O11918   2.293   5.900   4.557 -0.1768 -0.1233  0.0475
 3800WAT     H111919   2.353   5.939   4.494 -0.5068 -0.8856 -0.7668
 3800WAT     H211920   2.220   5.868   4.503  0.1976 -2.0642  0.6445
 3801WAT      O11921   3.634   0.236   0.272 -0.2487  0.3604  0.2930
 3801WAT     H111922   3.729   0.244   0.280 -0.2959 -0.3788  1.9466
 3801WAT     H211923   3.615   0.270   0.184  1.4399  1.2360  0.2127
 3802WAT      O11924   2.873   0.721   5.944  0.4124 -0.2805 -0.0286
 3802WAT     H111925   2.956   0.765   5.961  0.2637 -0.3687  0.9697
 3802WAT     H211926   2.897   0.640   5.898  0.8712 -0.2556  0.1675
 3803WAT      O11927   2.624   5.277   5.602  0.0065  0.0836  0.0499
 3803WAT     H111928   2.548   5.332   5.586 -1.4964 -1.6413  0.9423
 3803WAT     H211929   2.690   5.338   5.636 -1.1814  1.5166 -0.0928
 3804WAT      O11930   2.886   5.641   5.500  0.0800 -0.3505  0.1160
 3804WAT     H111931   2.823   5.708   5.525 -0.1047  0.1806 -1.6310
 3804WAT     H211932   2.969   5.672   5.535 -0.2785 -0.0516  0.7250
 3805WAT      O11933   4.352   0.479   1.342  0.3927  0.1699 -0.2341
 3805WAT     H111934   4.295   0.465   1.266 -0.0851 -0.7033  0.2591
 3805WAT     H211935   4.425   0.531   1.308 -0.3348  0.6981 -1.0434
 3806WAT      O11936   3.073   0.207   5.560 -0.3194 -0.3495  0.5514
 3806WAT     H111937   3.096   0.180   5.649 -1.2882 -2.6731  0.1619
 3806WAT     H211938   2.991   0.256   5.570  1.5780  2.9506  1.2924
 3807WAT      O11939   0.955   2.232   0.488  0.2296 -0.0999 -0.0672
 3807WAT     H111940   0.945   2.325   0.466 -0.0529  0.2065  1.2666
 3807WAT     H211941   1.005   2.231   0.570  2.8851 -1.2696 -1.5542
 3808WAT      O11942   1.813   3.135   0.841 -0.0018 -0.0508  0.3731
 3808WAT     H111943   1.841   3.225   0.821 -0.8281  0.1542  0.0880
 3808WAT     H211944   1.721   3.133   0.815 -0.1512 -0.8096  0.9413
 3809WAT      O11945   0.403   0.177   2.031  0.3008  0.7191 -0.0570
 3809WAT     H111946   0.337   0.114   2.060 -0.5581  0.7684 -1.7373
 3809WAT     H211947   0.353   0.243   1.983  1.6358  0.1151 -2.4580
 3810WAT      O11948   1.667   3.814   1.128 -0.2611  0.3813  0.2434
 3810WAT     H111949   1.613   3.767   1.192 -0.3523 -0.3468 -0.3669
 3810WAT     H211950   1.745   3.760   1.117  0.2959  1.0883  0.5978
 3811WAT      O11951   2.310   0.870   0.076 -0.1469 -0.0665 -0.6644
 3811WAT     H111952   2.299   0.883  -0.018  0.1602 -1.1484 -0.8660
 3811WAT     H211953   2.292   0.777   0.089  1.3967 -0.2890  0.0883
 3812WAT      O11954   2.807   6.042   1.408  0.4677  0.6275  0.3151
 3812WAT     H111955   2.900   6.035   1.387  0.0305 -2.5522 -1.1338
 3812WAT     H211956   2.793   5.981   1.480 -0.6949  0.0375 -0.3695
 3813WAT      O11957   4.110   4.819   0.850 -0.2587  0.0987  0.0681
 3813WAT     H111958   4.102   4.743   0.907 -0.8217  0.9637  1.1694
 3813WAT     H211959   4.084   4.893   0.904 -0.0983  1.0404 -1.0962
 3814WAT      O11960   3.354   0.176   5.057  0.0257 -0.3653  0.4053
 3814WAT     H111961   3.382   0.260   5.095  1.3845  0.3946 -2.0292
 3814WAT     H211962   3.284   0.200   4.996  0.6462 -0.9102 -0.5542
 3815WAT      O11963   1.424   0.523   3.533 -0.1895  0.3466  0.0451
 3815WAT     H111964   1.410   0.614   3.560  0.1962  1.2875 -2.6149
 3815WAT     H211965   1.345   0.477   3.561 -1.0291  1.8257  0.1972
 3816WAT      O11966   4.094   4.516   5.134 -0.3392 -0.0685 -0.2749
 3816WAT     H111967   4.051   4.517   5.220  0.2269 -1.9879  0.0891
 3816WAT     H211968   4.174   4.465   5.148  1.1008  1.7657 -1.3894
 3817WAT      O11969   2.227   0.304   5.902  0.1430  0.0815 -0.2352
 3817WAT     H111970   2.165   0.295   5.975  0.5280  2.8685  0.5786
 3817WAT     H211971   2.176   0.281   5.824 -1.0128 -0.5895  0.6886
 3818WAT      O11972   1.521   4.699   4.930 -0.0909  0.7091  0.2260
 3818WAT     H111973   1.597   4.641   4.933 -0.4022  0.0680 -2.0408
 3818WAT     H211974   1.452   4.651   4.976 -0.1466 -0.4638 -1.0087
 3819WAT      O11975   2.442   5.494   0.392  0.1816 -0.3697 -0.1047
 3819WAT     H111976   2.370   5.441   0.358 -0.2490 -1.7029  2.6845
 3819WAT     H211977   2.426   5.581   0.354 -3.6958 -0.2375  1.3018
 3820WAT      O11978   4.479   0.058   1.373  0.0284 -0.4287  0.2055
 3820WAT     H111979   4.401   0.083   1.324  0.4591 -0.4869 -0.5317
 3820WAT     H211980   4.552   0.090   1.320  0.5099 -0.2247  0.9591
 3821WAT      O11981   2.577   0.679   1.326 -0.0062  0.3848 -0.6083
 3821WAT     H111982   2.640   0.614   1.295  0.6397  0.7184 -0.0266
 3821WAT     H211983   2.556   0.731   1.248  1.1103  0.8181 -0.6472
 3822WAT      O11984   2.081   5.497   0.993  0.8664 -0.1627 -0.3830
 3822WAT     H111985   2.123   5.496   1.079 -1.0987  0.3640  0.6576
 3822WAT     H211986   2.102   5.412   0.955  0.9184 -0.8348  1.0697
 3823WAT      O11987   2.660   5.827   2.214  0.1791 -0.1279  0.3177
 3823WAT     H111988   2.648   5.820   2.120 -0.3794  0.4412  0.3382
 3823WAT     H211989   2.657   5.736   2.245 -2.4605 -0.2067  0.0938
 3824WAT      O11990   3.934   4.288   2.359 -0.8709 -0.0120  0.1217
 3824WAT     H111991   3.990   4.308   2.434 -0.1975  0.7803 -0.5561
 3824WAT     H211992   3.877   4.365   2.350  1.9270  2.0126 -2.6820
 3825WAT      O11993   3.612   6.093   0.317 -0.6446  1.4498  0.1780
 3825WAT     H111994   3.609   6.182   0.283  2.5209  1.5081 -0.2232
 3825WAT     H211995   3.689   6.092   0.374 -1.5114 -0.6493  1.4275
 3826WAT      O11996   2.127   5.267   0.600  0.6612 -0.0171 -0.2677
 3826WAT     H111997   2.093   5.266   0.510  0.4355  0.7601 -0.1903
 3826WAT     H211998   2.180   5.346   0.605  0.8456 -0.1697  0.2222
 3827WAT      O11999   2.456   0.554   5.701  0.3380  0.5987 -1.0642
 3827WAT     H112000   2.444   0.468   5.660  0.8130 -0.0207  0.0616
 3827WAT     H212001   2.368   0.577   5.732  0.2868  0.3208 -0.9957
 3828WAT      O12002   2.394   5.229   0.156 -0.5743  0.6564  0.0504
 3828WAT     H112003   2.442   5.187   0.227  1.1736  0.3236 -1.2504
 3828WAT     H212004   2.348   5.158   0.112 -1.7317  0.8746  0.8522
 3829WAT      O12005   4.733   5.781   0.750  0.1868 -0.1966 -0.4284
 3829WAT     H112006   4.813   5.743   0.713 -0.0924 -0.2601 -0.9685
 3829WAT     H212007   4.763   5.861   0.794  1.0299 -1.7183  2.0161
 3830WAT      O12008   3.767   0.884   4.771  0.5809 -0.5062 -0.4439
 3830WAT     H112009   3.676   0.890   4.802  1.2752  0.2346  1.5911
 3830WAT     H212010   3.792   0.793   4.786  0.3120 -0.6139 -0.6374
 3831WAT      O12011   2.271   5.499   0.613  0.2357 -0.5069  0.1987
 3831WAT     H112012   2.347   5.503   0.555 -1.0487 -0.6044 -1.5411
 3831WAT     H212013   2.266   5.587   0.650  0.0895  0.0928 -1.1756
 3832WAT      O12014   3.357   5.779   1.213  0.1888  0.2989  0.1819
 3832WAT     H112015   3.412   5.707   1.180 -0.5284  0.0031 -0.3932
 3832WAT     H212016   3.401   5.858   1.181  0.3134  0.0670 -0.2403
 3833WAT      O12017   3.925   5.504   1.355  0.3452  0.6393 -0.2934
 3833WAT     H112018   3.970   5.588   1.358 -0.4276  1.0632 -0.2880
 3833WAT     H212019   3.952   5.459   1.435  1.5286  0.4714 -0.7751
 3834WAT      O12020   2.512   4.511   0.841  0.4668  0.4846  0.4134
 3834WAT     H112021   2.549   4.562   0.912 -0.3293  0.0295  1.1749
 3834WAT     H212022   2.418   4.524   0.849  0.4081  2.7428 -2.3194
 3835WAT      O12023   2.623   5.984   5.001 -0.0805 -0.6769  0.4777
 3835WAT     H112024   2.670   6.063   4.974 -0.1363 -0.6413  0.4846
 3835WAT     H212025   2.586   5.949   4.921 -0.7410 -0.2497  0.5820
 3836WAT      O12026   4.143   5.149   1.405  0.1595 -0.5249  0.2916
 3836WAT     H112027   4.083   5.096   1.457  0.3181  0.2147  1.2557
 3836WAT     H212028   4.189   5.202   1.469  1.5186 -0.7442 -0.4770
 3837WAT      O12029   3.870   0.630   4.780  0.4295  0.1054 -0.1376
 3837WAT     H112030   3.965   0.628   4.789  0.3143 -0.5280  1.2335
 3837WAT     H212031   3.854   0.615   4.687  1.6288 -1.7765 -0.1011
 3838WAT      O12032   0.694   3.900   1.611 -0.0339  0.3438 -0.0074
 3838WAT     H112033   0.681   3.901   1.706  0.7898 -1.2264  0.1514
 3838WAT     H212034   0.620   3.950   1.576 -0.0615  1.4030  1.4785
 3839WAT      O12035   1.320   0.155   3.972  0.1826 -0.0315  0.0018
 3839WAT     H112036   1.257   0.108   4.026  0.4626  0.7922  1.0710
 3839WAT     H212037   1.301   0.125   3.882 -2.2120  0.7410  0.1875
 3840WAT      O12038   3.899   5.096   0.754  0.3133 -0.0204  0.0126
 3840WAT     H112039   3.931   5.018   0.800 -1.6321 -0.9926 -0.1781
 3840WAT     H212040   3.847   5.143   0.819 -0.1251  0.0938 -0.4160
 3841WAT      O12041   3.450   0.862   2.149  0.7706  0.1311 -0.5505
 3841WAT     H112042   3.514   0.929   2.173 -0.3087  0.5945  1.2505
 3841WAT     H212043   3.454   0.858   2.054  2.5294  1.0635 -0.5593
 3842WAT      O12044   3.319   5.797   4.395  0.0550  0.4435  0.2845
 3842WAT     H112045   3.304   5.880   4.440 -0.4671  0.7518 -0.4397
 3842WAT     H212046   3.276   5.807   4.310  0.0352 -0.5453  0.1596
 3843WAT      O12047   3.031   5.736   2.524 -0.0960 -0.4876  0.5285
 3843WAT     H112048   3.061   5.720   2.614  0.5717 -2.9872 -0.0342
 3843WAT     H212049   3.112   5.751   2.475 -0.2202 -1.5597 -0.0351
 3844WAT      O12050   3.217   4.620   0.339 -0.5018 -0.3453  0.0604
 3844WAT     H112051   3.312   4.616   0.354 -0.4895  0.7673  0.3837
 3844WAT     H212052   3.182   4.546   0.390  0.1970 -0.8471 -0.1675
 3845WAT      O12053   4.491   4.147   0.534  0.8165 -0.4362 -0.6361
 3845WAT     H112054   4.407   4.106   0.518  0.6050 -0.1988 -0.1434
 3845WAT     H212055   4.510   4.195   0.452 -2.0499  3.9175  0.8703
 3846WAT      O12056   3.312   0.986   1.063 -0.4104 -0.1712 -0.0274
 3846WAT     H112057   3.220   0.965   1.046 -0.1137 -1.5953 -0.0007
 3846WAT     H212058   3.352   0.902   1.085  0.4883  0.7202  1.9595
 3847WAT      O12059   4.002   4.249   0.139 -0.2662 -0.1128 -0.0954
 3847WAT     H112060   3.942   4.222   0.209 -1.2345 -2.3098 -1.6401
 3847WAT     H212061   4.084   4.266   0.184 -1.4469  0.8432  1.8360
 3848WAT      O12062   3.122   5.085   4.935 -0.1881 -0.3744  0.2040
 3848WAT     H112063   3.045   5.137   4.912  1.0986  0.6001 -2.3800
 3848WAT     H212064   3.180   5.146   4.979  0.3539 -0.2308 -0.6861
 3849WAT      O12065   3.685   3.544   0.938  0.2111  0.5497  0.3044
 3849WAT     H112066   3.702   3.468   0.882  0.3590 -0.2730  1.4403
 3849WAT     H212067   3.608   3.585   0.898 -2.0573 -2.1536  1.5485
 3850WAT      O12068   3.332   3.068   4.543  0.2881  0.7001 -0.5694
 3850WAT     H112069   3.356   3.138   4.604  0.9950  0.7661 -0.9076
 3850WAT     H212070   3.315   3.113   4.461  2.1370  0.3781 -1.1744
 3851WAT      O12071   1.816   4.636   5.736  0.1530 -0.2583 -0.4437
 3851WAT     H112072   1.747   4.570   5.748  0.3698 -0.3612  0.2739
 3851WAT     H212073   1.883   4.591   5.684  0.4459 -0.7195  0.3166
 3852WAT      O12074   3.280   3.947   0.942  0.3021  0.4883 -1.0448
 3852WAT     H112075   3.207   3.884   0.943 -0.7912  1.7220 -1.0306
 3852WAT     H212076   3.267   3.998   0.862  0.9521  0.9466 -0.8652
 3853WAT      O12077   2.315   4.966   3.989  0.2124  0.1959  0.0270
 3853WAT     H112078   2.246   5.025   3.957  0.0422 -0.5794 -1.0846
 3853WAT     H212079   2.285   4.940   4.076 -0.3978  0.6441 -0.0402
 3854WAT      O12080   1.045   0.793   4.099 -0.3822  0.2037  0.1957
 3854WAT     H112081   0.952   0.788   4.120 -0.4905 -0.3828 -0.3807
 3854WAT     H212082   1.084   0.718   4.145  0.0863  1.3340  1.7321
 3855WAT      O12083   2.861   3.057   3.634 -0.1482 -0.2458 -0.1609
 3855WAT     H112084   2.897   3.124   3.692  0.1390  0.3972 -1.0501
 3855WAT     H212085   2.772   3.041   3.666  0.2692 -0.4745  0.9141
 3856WAT      O12086   4.337   2.892   5.327  0.0682  0.1844  0.3289
 3856WAT     H112087   4.394   2.815   5.328  0.1401  0.2272  1.9100
 3856WAT     H212088   4.260   2.866   5.377 -1.1217  0.3035 -1.3401
 3857WAT      O12089   5.143   5.203   1.079 -0.7070  0.1021 -0.2207
 3857WAT     H112090   5.123   5.109   1.070  1.8202 -0.5090 -0.2336
 3857WAT     H212091   5.181   5.227   0.994  0.8924  0.4615  0.5474
 3858WAT      O12092   2.747   3.854   5.442 -0.5775  0.0207 -0.1537
 3858WAT     H112093   2.766   3.764   5.417 -1.1804  0.5868 -2.9887
 3858WAT     H212094   2.656   3.852   5.471 -0.4482 -0.3285  0.2447
 3859WAT      O12095   2.007   5.215   4.582  0.4365  0.1520 -0.4379
 3859WAT     H112096   1.978   5.143   4.637 -1.7665  1.2077 -0.0824
 3859WAT     H212097   2.034   5.174   4.500 -0.5134 -1.1016 -0.1399
 3860WAT      O12098   1.055   0.345   2.770 -0.1377  0.8581 -0.2983
 3860WAT     H112099   1.107   0.325   2.848  0.1694  0.5498 -0.5800
 3860WAT     H212100   1.113   0.400   2.717 -0.8733  2.3189  0.3479
 3861WAT      O12101   2.427   0.667   5.148  0.0528 -0.9149  0.2263
 3861WAT     H112102   2.484   0.594   5.175  0.5111 -0.3288  0.8888
 3861WAT     H212103   2.373   0.685   5.224  1.6122  1.0005  0.9819
 3862WAT      O12104   2.029   5.757   5.905 -0.0949  0.4183  0.1587
 3862WAT     H112105   1.945   5.730   5.941  0.1332  0.0378  0.4190
 3862WAT     H212106   2.046   5.694   5.834 -1.7129  2.6348 -2.3441
 3863WAT      O12107   3.715   5.228   5.141  1.1544  0.1957 -0.7759
 3863WAT     H112108   3.687   5.148   5.186 -0.1217 -0.2888 -2.3577
 3863WAT     H212109   3.808   5.237   5.164  1.0243 -1.0671  0.3754
 3864WAT      O12110   4.231   5.082   5.376  0.1380 -0.1843 -0.1920
 3864WAT     H112111   4.229   5.175   5.402  0.8012  0.5577 -2.5276
 3864WAT     H212112   4.144   5.064   5.341  0.6780  0.3079 -1.9072
 3865WAT      O12113   1.144   3.748   4.312 -0.2426 -0.1183 -0.4340
 3865WAT     H112114   1.181   3.831   4.279 -0.6975 -0.5579 -2.1422
 3865WAT     H212115   1.129   3.765   4.405  3.2566  0.4348  0.1980
 3866WAT      O12116   0.457   2.898   1.979  0.1027 -0.2231 -0.1698
 3866WAT     H112117   0.416   2.976   1.944  0.2644  0.0703  0.2941
 3866WAT     H212118   0.404   2.825   1.945 -0.6499  0.1334  0.2321
 3867WAT      O12119   2.938   5.847   5.796  0.2455 -0.3282  0.5695
 3867WAT     H112120   2.940   5.775   5.859 -0.8203 -1.1949 -0.3407
 3867WAT     H212121   3.029   5.855   5.767  0.1759 -2.3191 -0.3838
 3868WAT      O12122   3.978   5.029   4.781 -0.1618  0.2131 -0.1637
 3868WAT     H112123   4.030   5.101   4.816 -1.1454  0.0931  1.6524
 3868WAT     H212124   3.985   4.960   4.847 -1.2611 -0.4106 -0.6627
 3869WAT      O12125   4.306   0.842   5.286 -0.0744 -0.0319  0.6824
 3869WAT     H112126   4.349   0.927   5.274  0.1018 -0.4314 -2.4810
 3869WAT     H212127   4.377   0.778   5.277 -0.8497 -0.6121 -2.1272
 3870WAT      O12128   4.077   4.493   4.474  0.0047  0.2718 -0.3348
 3870WAT     H112129   4.040   4.451   4.396  0.9424 -0.2547 -0.5220
 3870WAT     H212130   4.002   4.512   4.529 -0.5155 -1.2423 -0.4572
 3871WAT      O12131   0.677   3.320   5.797  0.0042  0.2062  0.4285
 3871WAT     H112132   0.640   3.409   5.789  1.6524  0.8553 -0.5440
 3871WAT     H212133   0.707   3.314   5.887  0.8587  1.0804  0.2247
 3872WAT      O12134   3.594   3.116   5.209  0.1894 -0.4538 -0.0713
 3872WAT     H112135   3.632   3.031   5.231 -0.7121 -1.3091 -1.5905
 3872WAT     H212136   3.499   3.102   5.218 -0.0040  0.1821 -0.9730
 3873WAT      O12137   3.311   5.017   5.360  0.1675  0.3664  0.1837
 3873WAT     H112138   3.298   5.034   5.453 -1.1444 -1.1851  0.3268
 3873WAT     H212139   3.334   5.103   5.323  3.3056  0.5935  2.2877
 3874WAT      O12140   1.452   2.750   0.619 -0.1020  0.1948 -0.1120
 3874WAT     H112141   1.446   2.739   0.523  1.1579 -1.4054 -0.0522
 3874WAT     H212142   1.398   2.678   0.653 -0.2742  0.5592  0.3815
 3875WAT      O12143   3.451   3.985   0.653  0.0886 -0.1983  0.4437
 3875WAT     H112144   3.503   3.934   0.714 -0.5339  0.9646  2.0143
 3875WAT     H212145   3.367   3.940   0.649  0.7628 -1.4301 -1.2127
 3876WAT      O12146   1.703   4.093   5.672  0.3352  0.1659 -0.2545
 3876WAT     H112147   1.790   4.132   5.669  0.1507  0.6590  0.5899
 3876WAT     H212148   1.700   4.036   5.594  0.7559  1.5214 -1.2981
 3877WAT      O12149   1.179   4.327   0.803  0.4714  0.8259  0.0165
 3877WAT     H112150   1.144   4.251   0.849 -0.8778  1.9953  1.0021
 3877WAT     H212151   1.211   4.292   0.720  0.6217 -0.9314  0.7789
 3878WAT      O12152   2.910   3.235   4.519 -0.0778 -0.2628  0.1248
 3878WAT     H112153   2.999   3.263   4.499  0.3569 -2.2383 -0.9636
 3878WAT     H212154   2.905   3.145   4.487 -2.4044 -0.2928  0.3769
 3879WAT      O12155   2.945   4.624   0.223  0.1248  0.2319  0.6414
 3879WAT     H112156   3.036   4.644   0.244 -0.0012  1.3604  0.1893
 3879WAT     H212157   2.905   4.601   0.307  0.9520 -0.8449  0.7586
 3880WAT      O12158   1.897   4.209   5.380 -0.0093  0.3392  0.3462
 3880WAT     H112159   1.906   4.118   5.351  2.0138  0.3912  0.6048
 3880WAT     H212160   1.958   4.257   5.324 -2.2486  1.8766 -0.9307
 3881WAT      O12161   3.036   1.016   0.048 -0.1215  0.3527  0.2004
 3881WAT     H112162   3.090   0.963  -0.011 -0.4000  0.5639 -0.2508
 3881WAT     H212163   3.024   0.961   0.126 -1.9297 -1.0464 -0.9839
 3882WAT      O12164   3.058   4.011   0.190  0.5868  0.4840 -0.6015
 3882WAT     H112165   3.098   4.016   0.277  0.0848 -1.2168 -0.2276
 3882WAT     H212166   3.123   3.967   0.136 -0.3384 -1.4955 -0.2083
 3883WAT      O12167   2.905   4.088   5.391  0.3608  0.0667 -0.8393
 3883WAT     H112168   2.869   4.176   5.404 -0.4403 -0.1694 -1.3706
 3883WAT     H212169   2.832   4.029   5.410  0.5808 -0.4417 -1.5246
 3884WAT      O12170   4.596   4.623   0.199 -0.5174  0.5598 -0.0177
 3884WAT     H112171   4.588   4.613   0.294  0.0930  1.4091  0.1241
 3884WAT     H212172   4.618   4.535   0.168  1.0321  0.6240  0.8160
 3885WAT      O12173   2.481   3.728   2.426 -0.4150 -0.4363 -0.5608
 3885WAT     H112174   2.496   3.792   2.496 -1.7036 -0.9531  0.2415
 3885WAT     H212175   2.568   3.706   2.393  0.2026  0.0443  0.6928
 3886WAT      O12176   1.652   6.076   4.607 -0.0525  0.1263 -0.0466
 3886WAT     H112177   1.728   6.040   4.560  0.0386 -1.0060  0.9592
 3886WAT     H212178   1.580   6.069   4.544  0.2424 -0.6302 -0.3114
 3887WAT      O12179   2.408   5.188   5.834 -0.3185 -0.5350 -0.3307
 3887WAT     H112180   2.410   5.283   5.818 -0.4042 -0.7115 -1.4905
 3887WAT     H212181   2.488   5.170   5.882  0.2393 -0.0292 -1.0550
 3888WAT      O12182   4.520   5.198   5.631 -0.1756  0.0117 -0.1239
 3888WAT     H112183   4.431   5.232   5.624 -0.1074  0.0012 -1.1438
 3888WAT     H212184   4.517   5.112   5.590 -0.4340 -1.4897  2.7595
 3889WAT      O12185   2.680   5.172   5.927 -0.1054 -0.0436  0.1693
 3889WAT     H112186   2.712   5.144   6.013 -0.8636  0.6971  0.7117
 3889WAT     H212187   2.739   5.131   5.865  0.1888 -0.9630  1.0280
 3890WAT      O12188   3.568   4.846   0.396 -0.2364 -0.1737 -0.1255
 3890WAT     H112189   3.644   4.879   0.445  0.3027 -1.3934 -0.0918
 3890WAT     H212190   3.598   4.843   0.305 -0.2682 -0.5928 -0.1220
 3891WAT      O12191   3.416   4.356   0.316 -0.0273 -0.3646  0.2717
 3891WAT     H112192   3.468   4.436   0.312 -0.4223 -0.0782  0.7162
 3891WAT     H212193   3.422   4.319   0.228  1.7348 -0.8676  0.5717
 3892WAT      O12194   1.068   3.418   5.883 -0.0470  0.1335 -0.1757
 3892WAT     H112195   1.028   3.492   5.928  2.2444  0.9427  0.6651
 3892WAT     H212196   1.023   3.341   5.919 -3.7806  1.0284 -2.4012
 3893WAT      O12197   1.603   1.835   4.617 -0.2544  0.0119  0.0894
 3893WAT     H112198   1.694   1.813   4.599 -0.6044 -1.7941  0.3761
 3893WAT     H212199   1.559   1.827   4.533 -0.0202  1.7949 -0.2439
 3894WAT      O12200   3.817   6.075   6.004  0.8275  0.5805  0.0848
 3894WAT     H112201   3.861   5.992   6.025 -0.0204 -0.2073 -1.1376
 3894WAT     H212202   3.822   6.081   5.908 -1.7935  0.3891 -0.1293
 3895WAT      O12203   1.240   1.607   4.544  0.1512  0.1729  0.5050
 3895WAT     H112204   1.276   1.663   4.614  0.4546 -1.1763  1.4698
 3895WAT     H212205   1.310   1.601   4.480 -0.6191  2.5810 -0.6851
 3896WAT      O12206   4.324   3.856   0.137 -0.5036  0.3453 -0.0685
 3896WAT     H112207   4.322   3.859   0.041  2.4077  2.6837 -0.2290
 3896WAT     H212208   4.252   3.913   0.164  0.1916  1.7521 -1.0293
 3897WAT      O12209   2.263   5.490   5.270  0.1439  0.2927  0.2256
 3897WAT     H112210   2.279   5.418   5.208  0.6180  0.4322  0.1834
 3897WAT     H212211   2.185   5.463   5.318 -0.2887  0.2198 -0.4957
 3898WAT      O12212   2.865   5.176   4.819 -0.3348  0.0787  0.2500
 3898WAT     H112213   2.832   5.092   4.788  0.0082 -0.3438  1.0115
 3898WAT     H212214   2.786   5.230   4.829 -0.5256 -0.0384 -0.5358
 3899WAT      O12215   4.033   4.475   5.428 -0.3325  0.1373 -0.3676
 3899WAT     H112216   3.941   4.452   5.422 -0.5777  0.8693  0.4325
 3899WAT     H212217   4.039   4.534   5.503  0.8692 -0.3157 -0.0720
 3900WAT      O12218   2.362   0.405   4.226  0.3079 -0.7465 -0.3572
 3900WAT     H112219   2.352   0.420   4.320  1.1976 -0.4501 -0.2999
 3900WAT     H212220   2.397   0.488   4.193 -1.0824 -0.4389 -1.1472
 3901WAT      O12221   3.334   3.336   0.504  0.0511 -0.3696 -0.1115
 3901WAT     H112222   3.367   3.293   0.425  1.1670  0.8661 -0.3511
 3901WAT     H212223   3.280   3.408   0.471  1.8573  1.1835  0.1736
 3902WAT      O12224   4.519   1.079   4.036  0.1788 -0.7522  0.8623
 3902WAT     H112225   4.491   1.008   3.977  0.2459  0.0918 -0.2182
 3902WAT     H212226   4.447   1.143   4.032  2.2295  1.6393 -2.2533
 3903WAT      O12227   2.146   1.478   4.984 -0.0295  0.1966  0.0703
 3903WAT     H112228   2.192   1.401   5.018 -1.0724  0.1310  1.4529
 3903WAT     H212229   2.184   1.552   5.030 -1.2683  0.1368  1.2615
 3904WAT      O12230   3.431   4.093   5.598 -0.2509  0.2822  0.2877
 3904WAT     H112231   3.399   4.006   5.577 -0.0691 -0.0488  1.3626
 3904WAT     H212232   3.435   4.138   5.513 -0.8180 -0.5828 -0.2072
 3905WAT      O12233   2.142   4.153   5.957 -0.7729 -0.0896 -0.0404
 3905WAT     H112234   2.214   4.097   5.931 -1.4591 -0.2593 -1.7112
 3905WAT     H212235   2.168   4.188   6.042  2.0331  1.1439 -1.2806
 3906WAT      O12236   1.901   2.076   5.349  0.0791  0.1170 -0.2876
 3906WAT     H112237   1.901   1.992   5.395  2.0696  0.0061 -0.4034
 3906WAT     H212238   1.920   2.054   5.258  1.9568  0.7320 -0.0972
 3907WAT      O12239   3.392   3.875   4.064 -0.3930  0.0294  0.1641
 3907WAT     H112240   3.365   3.792   4.025 -2.7447  0.6252  0.3289
 3907WAT     H212241   3.373   3.940   3.996  0.4642  0.5462  0.4007
 3908WAT      O12242   2.931   0.480   3.839  0.3494  0.3830 -0.3053
 3908WAT     H112243   2.880   0.402   3.861 -1.0795  1.5367  0.6426
 3908WAT     H212244   2.878   0.527   3.774  0.3216  1.4221  0.4318
 3909WAT      O12245   2.439   3.279   0.436  0.6091  0.1080 -0.1019
 3909WAT     H112246   2.451   3.184   0.432  1.0791  0.1305  0.6431
 3909WAT     H212247   2.512   3.310   0.489  0.4948  0.8982 -0.3936
 3910WAT      O12248   1.925   5.572   3.848  0.0814 -0.6988 -0.3151
 3910WAT     H112249   1.840   5.591   3.888 -1.1176 -0.5091 -2.7951
 3910WAT     H212250   1.913   5.593   3.755  2.8296 -0.7393 -0.7516
 3911WAT      O12251   3.111   3.493   4.085 -0.1406 -0.1705 -0.1517
 3911WAT     H112252   3.044   3.561   4.088  0.6297  0.5780  0.6292
 3911WAT     H212253   3.065   3.413   4.112 -0.7242  0.3170  0.3189
 3912WAT      O12254   3.446   5.813   3.497  0.1396  0.1740 -0.3733
 3912WAT     H112255   3.531   5.777   3.521  0.1068 -0.5573 -1.3269
 3912WAT     H212256   3.423   5.770   3.415 -0.8258  0.8910 -0.5028
 3913WAT      O12257   4.138   4.942   4.121  0.4338 -0.1513 -0.8443
 3913WAT     H112258   4.229   4.915   4.108  0.0780 -1.2943 -1.0361
 3913WAT     H212259   4.117   4.914   4.210  0.1820 -0.1720 -0.9085
 3914WAT      O12260   2.567   4.332   4.472  0.3947  0.2041  0.6109
 3914WAT     H112261   2.623   4.409   4.472  0.6901  0.0843 -2.2733
 3914WAT     H212262   2.483   4.362   4.437  0.1981 -0.5869  0.3655
 3915WAT      O12263   2.874   5.407   5.891 -0.0423  0.2793  0.0916
 3915WAT     H112264   2.945   5.431   5.831 -0.1680  0.7163  0.1108
 3915WAT     H212265   2.884   5.313   5.905  0.2394  0.2533 -0.2881
 3916WAT      O12266   1.968   1.556   4.335 -0.1001  0.4571 -0.0032
 3916WAT     H112267   1.914   1.561   4.257 -0.8165 -1.4178  0.3103
 3916WAT     H212268   1.985   1.462   4.347  2.8768  0.9159  0.1752
 3917WAT      O12269   4.475   4.014   4.617  0.0168  0.5800  0.6058
 3917WAT     H112270   4.443   4.008   4.707 -0.4092 -2.0828  0.3794
 3917WAT     H212271   4.507   3.925   4.597 -0.9970  0.7385 -2.2221
 3918WAT      O12272   2.409   3.989   5.356  0.3922  0.3075 -0.1999
 3918WAT     H112273   2.331   4.036   5.387 -0.8164 -1.3136 -0.5994
 3918WAT     H212274   2.453   3.960   5.436  0.7481  1.4692  0.0343
 3919WAT      O12275   3.352   3.461   4.276 -0.2275  0.2193 -0.3414
 3919WAT     H112276   3.396   3.469   4.361 -0.3512 -0.6324 -0.1880
 3919WAT     H212277   3.378   3.374   4.245  0.7404  0.9590 -1.7071
 3920WAT      O12278   2.450   5.012   3.616 -0.5900  0.2925 -0.2103
 3920WAT     H112279   2.362   5.046   3.627 -0.7324  0.2830 -1.2819
 3920WAT     H212280   2.488   5.062   3.544  0.0979 -0.0534 -0.1067
 3921WAT      O12281   1.634   2.841   0.968 -0.1292 -0.0460 -0.0511
 3921WAT     H112282   1.726   2.854   0.990  0.3212 -3.3162  0.4931
 3921WAT     H212283   1.625   2.877   0.880  2.0618 -0.8469 -0.6602
 3922WAT      O12284   2.286   3.828   0.272  0.2581  0.4537  0.7152
 3922WAT     H112285   2.353   3.882   0.230 -0.0694  0.0977 -0.3030
 3922WAT     H212286   2.281   3.750   0.217 -0.9935  0.4782  0.7699
 3923WAT      O12287   2.206   4.826   5.304  0.2334 -0.2210 -0.0316
 3923WAT     H112288   2.196   4.782   5.388 -2.3696  1.6155  0.7722
 3923WAT     H212289   2.222   4.755   5.241 -1.2566 -2.0404  1.5133
 3924WAT      O12290   3.646   4.986   4.828 -0.4502  0.1066  0.4018
 3924WAT     H112291   3.673   4.913   4.883 -0.0225 -1.4078 -1.6625
 3924WAT     H212292   3.571   4.952   4.778 -0.5621  1.2551 -0.2547
 3925WAT      O12293   5.903   4.804   3.648  0.0817 -0.4209 -0.0016
 3925WAT     H112294   5.911   4.847   3.564 -0.8390 -0.7923 -0.2968
 3925WAT     H212295   5.853   4.866   3.702  1.2529  0.1117  0.5014
 3926WAT      O12296   0.248   3.783   4.004  0.6101 -0.5312  0.4495
 3926WAT     H112297   0.229   3.765   4.096  1.2589  0.1494  0.7320
 3926WAT     H212298   0.182   3.734   3.956 -0.1200 -0.4091  1.2994
 3927WAT      O12299   4.315   4.025   2.497 -0.2226  0.1094  1.1927
 3927WAT     H112300   4.398   4.067   2.518  0.9517 -0.5228 -1.6406
 3927WAT     H212301   4.340   3.944   2.453 -2.3207  0.1176 -0.1748
 3928WAT      O12302   2.494   4.248   3.077 -0.2177  0.9355 -0.4218
 3928WAT     H112303   2.483   4.343   3.080 -0.1248  0.9895 -1.3177
 3928WAT     H212304   2.533   4.225   3.161  2.6123  2.0921 -1.3108
 3929WAT      O12305   4.128   2.476   4.815 -0.4042 -0.1512  0.1234
 3929WAT     H112306   4.142   2.385   4.840  3.6533 -0.6061 -2.7666
 3929WAT     H212307   4.082   2.472   4.731  2.2181  0.1360 -1.4322
 3930WAT      O12308   4.361   4.571   4.790 -0.2223 -0.1707  0.4821
 3930WAT     H112309   4.336   4.654   4.831  1.3306 -0.0337  1.2161
 3930WAT     H212310   4.289   4.511   4.811 -0.7239  0.6265  1.0807
 3931WAT      O12311   0.718   2.072   4.114  0.4424 -0.2517  0.0790
 3931WAT     H112312   0.689   1.981   4.111 -2.0395  0.4585  0.3229
 3931WAT     H212313   0.763   2.086   4.031 -1.5092 -1.0100 -1.1655
 3932WAT      O12314   3.018   4.595   2.862 -0.9834  0.0924  0.1507
 3932WAT     H112315   3.071   4.546   2.924 -1.7596 -0.4172  0.4360
 3932WAT     H212316   3.071   4.671   2.838  0.2387 -0.8749 -0.2871
 3933WAT      O12317   1.122   2.000   5.451 -0.1320 -0.1676 -0.2690
 3933WAT     H112318   1.187   1.986   5.382 -0.0604  1.1954 -0.5174
 3933WAT     H212319   1.153   2.077   5.498 -0.7392 -0.4566  0.6371
 3934WAT      O12320   2.627   4.112   4.892  0.3841 -0.1225 -0.2149
 3934WAT     H112321   2.589   4.049   4.954  0.7601  1.3063  1.5377
 3934WAT     H212322   2.563   4.117   4.821 -0.5345 -1.1004  0.5208
 3935WAT      O12323   2.905   4.489   5.362  0.2178  0.6641  0.2983
 3935WAT     H112324   2.816   4.462   5.338  0.7368 -0.6675 -0.2551
 3935WAT     H212325   2.961   4.443   5.299  1.3879  0.2020  1.6198
 3936WAT      O12326   3.554   4.496   2.486 -0.7445  0.1820 -0.1423
 3936WAT     H112327   3.502   4.538   2.555 -2.9097 -2.1262 -0.2598
 3936WAT     H212328   3.638   4.479   2.528 -1.5405  0.0822  1.5162
 3937WAT      O12329   3.706   5.252   4.865  0.2667  0.1714  0.1293
 3937WAT     H112330   3.714   5.252   4.960 -1.6869 -0.9451  0.3329
 3937WAT     H212331   3.699   5.159   4.841  3.7674  0.1458 -1.4679
 3938WAT      O12332   2.827   4.390   5.728  0.1130  0.1351 -0.0831
 3938WAT     H112333   2.793   4.369   5.815  0.3562 -0.8941 -0.2299
 3938WAT     H212334   2.792   4.477   5.710 -2.3058 -0.7668 -0.1434
 3939WAT      O12335   3.520   5.655   0.816 -0.3951  0.2084 -0.0157
 3939WAT     H112336   3.615   5.651   0.829 -0.3358 -1.7118 -0.7559
 3939WAT     H212337   3.489   5.567   0.837 -1.9412  0.6230 -0.4180
 3940WAT      O12338   2.470   4.780   4.845  0.5268  0.3235  0.3134
 3940WAT     H112339   2.517   4.814   4.922  0.1677 -0.0110  0.6867
 3940WAT     H212340   2.539   4.763   4.781  0.7958  0.9909  0.4056
 3941WAT      O12341   3.629   4.692   4.393 -0.1715 -0.0241 -0.2376
 3941WAT     H112342   3.564   4.728   4.453 -0.5497 -0.1009 -0.6026
 3941WAT     H212343   3.664   4.768   4.347 -0.6505 -0.0763 -0.6885
 3942WAT      O12344   2.424   2.857   5.579  0.5064  0.2875  0.0677
 3942WAT     H112345   2.399   2.906   5.501  0.3254  1.7998  1.0310
 3942WAT     H212346   2.387   2.908   5.651 -0.8170 -1.9917  1.0801
 3943WAT      O12347   2.719   3.475   4.876  0.0377 -0.0070 -0.0670
 3943WAT     H112348   2.743   3.473   4.783 -0.7407 -0.1292 -0.2750
 3943WAT     H212349   2.631   3.437   4.878  0.2070 -0.3606  0.7720
 3944WAT      O12350   3.294   4.231   5.168 -0.6080 -0.1046 -0.2888
 3944WAT     H112351   3.259   4.150   5.204  0.1265 -0.2711  0.0662
 3944WAT     H212352   3.362   4.257   5.230  0.5144 -0.2609 -1.4176
 3945WAT      O12353   1.692   1.194   4.558 -0.4764 -0.3114  0.5828
 3945WAT     H112354   1.641   1.116   4.539 -1.4269  0.5563 -0.6162
 3945WAT     H212355   1.739   1.213   4.476 -3.5518  2.7080 -0.7486
 3946WAT      O12356   2.559   5.135   5.208 -0.6736  0.5515 -0.3358
 3946WAT     H112357   2.642   5.120   5.254 -1.0083 -0.1828  0.0432
 3946WAT     H212358   2.567   5.224   5.174 -0.0965  0.8227  0.4727
 3947WAT      O12359   1.380   4.485   5.047  0.3377 -0.1841  0.0158
 3947WAT     H112360   1.338   4.456   5.128 -1.9284 -0.2558 -1.1229
 3947WAT     H212361   1.398   4.404   4.999  2.8823 -0.2487  0.9086
 3948WAT      O12362   1.853   2.900   5.573  0.4935 -0.2455  0.3200
 3948WAT     H112363   1.887   2.858   5.652 -0.0515 -1.0457  0.1365
 3948WAT     H212364   1.932   2.925   5.524  0.8240 -0.5399  0.6955
 3949WAT      O12365   0.857   3.589   4.587 -0.2159 -0.0011 -0.5305
 3949WAT     H112366   0.766   3.588   4.557 -0.3127 -2.8684 -0.4816
 3949WAT     H212367   0.890   3.676   4.564 -2.3632  0.4004 -2.4067
 3950WAT      O12368   1.908   0.413   5.569  0.0371  0.0833 -0.5232
 3950WAT     H112369   1.915   0.415   5.474  2.5835  1.5283 -0.3846
 3950WAT     H212370   1.897   0.504   5.595 -0.7431 -0.3005  0.5887
 3951WAT      O12371   2.292   5.066   5.214 -0.3327  0.0500 -0.0334
 3951WAT     H112372   2.244   4.991   5.249 -0.6193  0.4582  0.4624
 3951WAT     H212373   2.382   5.035   5.207 -0.4485 -0.3439  0.1681
 3952WAT      O12374   2.803   5.047   4.414  0.0666  0.1689  0.1290
 3952WAT     H112375   2.827   5.126   4.366  0.5598 -1.6637 -2.9090
 3952WAT     H212376   2.887   5.007   4.438 -0.1313  1.5000  3.6427
 3953WAT      O12377   1.695   3.649   4.048 -0.1298  0.3336 -0.0849
 3953WAT     H112378   1.772   3.594   4.059 -0.8978 -0.9955 -1.0263
 3953WAT     H212379   1.717   3.710   3.978 -1.2527 -2.8229 -3.5399
 3954WAT      O12380   2.310   4.712   3.493  0.0817 -0.4426 -0.0652
 3954WAT     H112381   2.339   4.772   3.425 -0.4929  0.0131  0.0805
 3954WAT     H212382   2.220   4.739   3.511  0.0438 -0.9211  0.4766
 3955WAT      O12383   3.044   4.389   4.095 -0.2716 -0.1212  0.0024
 3955WAT     H112384   2.993   4.310   4.077  0.2300 -0.6276  0.7190
 3955WAT     H212385   2.986   4.461   4.071 -0.1737 -0.7055 -2.1278
 3956WAT      O12386   4.326   5.169   4.382  0.4731 -0.2810 -0.1954
 3956WAT     H112387   4.382   5.100   4.347 -1.3912 -1.9561 -0.0655
 3956WAT     H212388   4.320   5.150   4.476  0.3269  0.3607 -0.0690
 3957WAT      O12389   2.065   3.265   4.459 -0.3687  0.1110  0.1674
 3957WAT     H112390   2.009   3.198   4.498 -1.4155  0.2971 -0.9459
 3957WAT     H212391   2.006   3.314   4.401  0.7300  0.9841 -0.2446
 3958WAT      O12392   3.637   3.797   5.674  0.7737 -0.5774 -0.4166
 3958WAT     H112393   3.611   3.872   5.620  0.4460 -0.4365 -0.0668
 3958WAT     H212394   3.566   3.734   5.662 -0.9914  0.7033  2.3497
 3959WAT      O12395   4.271   2.814   4.382  0.6588  0.0591  0.2209
 3959WAT     H112396   4.339   2.859   4.331  0.8731 -0.6121 -0.0998
 3959WAT     H212397   4.204   2.880   4.395  0.9363  0.4583 -0.3036
 3960WAT      O12398   3.235   3.366   5.206  0.4397  0.1123 -0.3199
 3960WAT     H112399   3.254   3.277   5.235  0.4991  0.2793  0.1572
 3960WAT     H212400   3.304   3.386   5.143  1.5331  0.4929  0.9436
 3961WAT      O12401   2.187   1.222   3.574  0.4909 -0.6359 -0.3164
 3961WAT     H112402   2.205   1.258   3.661  0.9304 -0.8428 -0.3187
 3961WAT     H212403   2.231   1.283   3.514 -1.6088  0.7421 -0.5569
 3962WAT      O12404   1.450   4.465   4.576  0.2798 -0.7641  0.8086
 3962WAT     H112405   1.532   4.429   4.610 -0.0046 -1.0940  1.1445
 3962WAT     H212406   1.445   4.552   4.615  0.1654 -0.9780  1.2774
 3963WAT      O12407   4.943   4.295   4.877 -0.6187 -0.1442  0.5418
 3963WAT     H112408   4.909   4.208   4.860  0.9154 -0.6931  0.1532
 3963WAT     H212409   4.865   4.347   4.900 -1.8184 -1.1026 -1.1353
 3964WAT      O12410   2.599   3.031   3.768  0.0166  0.2528 -0.2742
 3964WAT     H112411   2.581   2.984   3.850  0.8351  0.3380 -0.0342
 3964WAT     H212412   2.537   3.103   3.767 -0.6900 -0.3463 -0.2341
 3965WAT      O12413   3.305   4.060   2.406 -0.1682  0.5855 -0.2772
 3965WAT     H112414   3.374   3.998   2.382 -0.7291 -0.4490  0.7385
 3965WAT     H212415   3.308   4.126   2.336  1.0772 -0.0484 -0.8600
 3966WAT      O12416   1.914   3.826   3.237  0.2668 -0.3225 -0.2073
 3966WAT     H112417   1.908   3.912   3.194 -0.2253 -1.2188 -2.0306
 3966WAT     H212418   2.008   3.811   3.249  0.4009  0.0434 -0.7885
 3967WAT      O12419   2.903   5.869   3.703 -0.3647 -0.6088 -0.2106
 3967WAT     H112420   2.908   5.906   3.615  0.7498  0.3068  0.2143
 3967WAT     H212421   2.814   5.833   3.709 -0.4532 -0.6875 -1.6967
 3968WAT      O12422   2.120   5.123   3.121 -0.2392 -0.4731  0.1873
 3968WAT     H112423   2.081   5.159   3.042 -0.2758  2.4143  1.3982
 3968WAT     H212424   2.198   5.076   3.090  0.5335  1.7662 -1.4885
 3969WAT      O12425   2.438   3.475   4.832 -0.2279  0.2415  0.2317
 3969WAT     H112426   2.405   3.444   4.747  1.5146 -0.0428 -0.3923
 3969WAT     H212427   2.364   3.520   4.872 -0.9316  0.9111 -1.7099
 3970WAT      O12428   3.007   0.854   4.010 -0.2712  0.0309 -0.0384
 3970WAT     H112429   3.088   0.804   3.998 -0.0804  0.4696 -0.5782
 3970WAT     H212430   3.035   0.945   4.015 -0.5705  0.0688  1.3928
 3971WAT      O12431   1.870   0.032   0.517  0.4423  0.5400  0.4676
 3971WAT     H112432   1.936   0.083   0.470  0.8928 -0.4867 -0.0376
 3971WAT     H212433   1.798   0.023   0.455  0.6460 -0.0181  0.3122
 3972WAT      O12434   0.888   6.077   3.769  0.0810  0.2317 -0.0591
 3972WAT     H112435   0.916   6.169   3.770  1.6152 -0.2183  0.4982
 3972WAT     H212436   0.806   6.077   3.819  0.3927  1.2030  0.4740
 3973WAT      O12437   3.730   4.199   3.462 -0.4731  0.6196  0.0214
 3973WAT     H112438   3.801   4.135   3.456 -1.1004 -0.0084 -1.1245
 3973WAT     H212439   3.761   4.264   3.525  0.7327 -0.1184  0.2142
 3974WAT      O12440   2.757   4.956   4.682 -0.3859 -0.1254 -0.1577
 3974WAT     H112441   2.681   5.011   4.697 -1.4055 -1.2697 -0.9492
 3974WAT     H212442   2.779   4.970   4.589 -1.5360 -2.0401 -0.7782
 3975WAT      O12443   2.726   5.534   4.208 -0.3638 -0.0017  0.2708
 3975WAT     H112444   2.764   5.486   4.134 -0.0309 -0.5574  0.8051
 3975WAT     H212445   2.789   5.603   4.227  1.0633 -1.6812  1.9805
 3976WAT      O12446   3.177   4.243   4.313 -0.4576 -0.2538  0.2995
 3976WAT     H112447   3.169   4.298   4.235  1.0547 -0.7172 -0.2266
 3976WAT     H212448   3.184   4.154   4.279  1.1016 -0.3934  0.8591
 3977WAT      O12449   4.199   4.109   3.921  0.5124 -0.4000 -0.1789
 3977WAT     H112450   4.275   4.143   3.969  0.7888  0.3319 -1.1276
 3977WAT     H212451   4.158   4.048   3.983  1.9385 -0.9064  0.3132
 3978WAT      O12452   1.551   5.206   4.423  0.8774 -0.2946 -0.0707
 3978WAT     H112453   1.629   5.178   4.376  0.4093  1.2600 -1.8852
 3978WAT     H212454   1.575   5.289   4.464  0.5649 -0.4704  0.4819
 3979WAT      O12455   4.073   5.081   3.690  0.1927 -0.2528 -0.2745
 3979WAT     H112456   4.101   5.082   3.599  0.5616  0.1776 -0.1624
 3979WAT     H212457   4.151   5.109   3.739  0.5331 -2.0780  0.3221
 3980WAT      O12458   1.458   6.133   4.403  0.8173 -0.0961  0.0592
 3980WAT     H112459   1.470   6.043   4.371  1.2147  0.3110 -0.9739
 3980WAT     H212460   1.413   6.177   4.331  1.0390  0.6449  0.3742
 3981WAT      O12461   3.489   5.304   4.457 -0.5308 -0.4146 -0.1350
 3981WAT     H112462   3.470   5.390   4.493 -1.2305 -0.9345  0.7752
 3981WAT     H212463   3.448   5.305   4.370 -1.0544 -0.0364  0.1127
 3982WAT      O12464   4.891   5.123   4.559  0.1258 -0.1604  0.2507
 3982WAT     H112465   4.967   5.103   4.614  0.4348 -0.7877 -0.3857
 3982WAT     H212466   4.848   5.038   4.547 -1.4760  0.3737  1.7247
 3983WAT      O12467   2.739   3.885   4.419 -0.5153 -0.1299 -0.0313
 3983WAT     H112468   2.716   3.878   4.512  0.1922  0.4349  0.1973
 3983WAT     H212469   2.745   3.980   4.404 -0.0706 -0.2334 -0.5104
 3984WAT      O12470   4.101   3.518   5.118 -0.1247 -0.0490  0.3935
 3984WAT     H112471   4.005   3.512   5.122 -0.0012 -1.8103  2.5772
 3984WAT     H212472   4.128   3.439   5.070  0.2607  0.4771 -0.2769
 3985WAT      O12473   2.831   2.966   5.333 -0.2696 -0.0016  0.2006
 3985WAT     H112474   2.764   2.915   5.288  0.3664  0.6224 -1.5647
 3985WAT     H212475   2.792   3.053   5.343  0.1021  0.2581 -0.4905
 3986WAT      O12476   1.279   4.340   4.414 -0.1607  0.0625 -0.2288
 3986WAT     H112477   1.343   4.364   4.481 -1.2545  0.0196  0.8710
 3986WAT     H212478   1.237   4.261   4.449  0.7407 -1.2488 -1.9942
 3987WAT      O12479   2.486   5.250   4.455  0.4200  0.0435  0.3213
 3987WAT     H112480   2.484   5.154   4.457  1.4894  0.0083  2.0666
 3987WAT     H212481   2.403   5.276   4.495 -1.1447 -0.0293 -2.5558
 3988WAT      O12482   1.196   1.743   3.824 -0.0447  0.3828  0.1605
 3988WAT     H112483   1.268   1.683   3.803  0.1164 -0.3425  2.5115
 3988WAT     H212484   1.117   1.695   3.802  0.1185  0.5953 -0.9805
 3989WAT      O12485   1.133   4.032   5.511 -0.1238  0.3748 -0.4752
 3989WAT     H112486   1.127   3.945   5.473  0.3287  0.8154 -1.5915
 3989WAT     H212487   1.156   4.089   5.438  0.1641  1.3448  0.3428
 3990WAT      O12488   1.340   3.813   3.903  0.0158  0.5243 -0.1279
 3990WAT     H112489   1.349   3.735   3.848 -2.1048 -0.8110  1.2779
 3990WAT     H212490   1.430   3.838   3.925  0.7491 -1.8793 -0.1685
 3991WAT      O12491   1.825   4.135   4.320  0.4997 -0.0786 -0.2462
 3991WAT     H112492   1.804   4.141   4.413 -1.5607 -1.6637 -0.5302
 3991WAT     H212493   1.895   4.070   4.316 -0.3907 -1.0976  0.1310
 3992WAT      O12494   2.820   2.493   4.735 -0.1887  0.3717 -0.2994
 3992WAT     H112495   2.738   2.529   4.770  0.2574  0.3058  0.8638
 3992WAT     H212496   2.876   2.484   4.812  0.5410 -0.5807 -0.9319
 3993WAT      O12497   3.921   3.201   5.397 -0.1116  0.1991  0.0798
 3993WAT     H112498   3.951   3.252   5.472  0.0762 -1.7594  1.4033
 3993WAT     H212499   3.869   3.263   5.345  2.6015  2.5917 -0.0688
 3994WAT      O12500   2.441   2.975   5.328  0.1243 -0.1846 -0.5175
 3994WAT     H112501   2.375   2.953   5.261 -0.2652 -0.5199 -0.0376
 3994WAT     H212502   2.487   3.050   5.292 -0.4611 -0.0000 -0.9117
 3995WAT      O12503   1.571   3.992   4.893 -0.1568 -0.0266 -0.0460
 3995WAT     H112504   1.661   3.973   4.867 -0.3966 -1.0167 -0.1897
 3995WAT     H212505   1.554   3.933   4.967  0.1455  1.9599  1.6941
 3996WAT      O12506   6.299   4.551   3.672 -0.3315 -0.3189  0.5649
 3996WAT     H112507   6.391   4.578   3.676 -0.8421  1.4703  1.4698
 3996WAT     H212508   6.274   4.563   3.580 -0.0508  0.6332  0.6064
 3997WAT      O12509   3.209   5.253   5.147  0.5921  0.2925 -0.1193
 3997WAT     H112510   3.152   5.214   5.213  0.1406  0.3188 -0.4880
 3997WAT     H212511   3.288   5.277   5.195  0.0941  0.7171  0.5045
 3998WAT      O12512   2.750   4.040   3.815 -0.1798  0.6548 -0.0335
 3998WAT     H112513   2.792   4.001   3.738  2.8480  0.8810  1.3695
 3998WAT     H212514   2.721   4.126   3.784  1.2864  0.8877 -0.8906
 3999WAT      O12515   2.736   4.532   4.183  0.5356 -0.1657 -0.4668
 3999WAT     H112516   2.662   4.488   4.142  0.8153 -2.5060  1.3581
 3999WAT     H212517   2.800   4.541   4.113 -0.0754 -1.4774 -1.2292
 4000WAT      O12518   3.153   3.293   4.373  0.3612 -0.2496  0.2788
 4000WAT     H112519   3.193   3.367   4.327  2.6695 -0.2516  2.1045
 4000WAT     H212520   3.138   3.228   4.304 -0.3061  1.3061 -1.1064
 4001WAT      O12521   1.875   4.752   4.015  0.1343  0.3912  0.4552
 4001WAT     H112522   1.798   4.802   4.038 -1.4091 -1.3525 -0.6321
 4001WAT     H212523   1.856   4.663   4.046  1.6064 -0.1308 -0.0309
 4002WAT      O12524   3.294   2.000   5.465  0.3124 -0.5550 -0.0298
 4002WAT     H112525   3.377   1.985   5.511  0.7291  0.2157 -0.4985
 4002WAT     H212526   3.235   2.035   5.531  0.4246 -0.9145  0.2624
 4003WAT      O12527   4.843   4.273   3.618 -0.3360  0.3181  0.2923
 4003WAT     H112528   4.767   4.303   3.668 -0.3432  1.8475 -0.5662
 4003WAT     H212529   4.816   4.281   3.526  1.2728  2.2060 -0.0915
 4004WAT      O12530   2.984   4.303   4.498  0.6817 -0.2198 -0.0863
 4004WAT     H112531   3.028   4.292   4.414  0.8778 -1.6424  0.1592
 4004WAT     H212532   2.913   4.238   4.496  1.2869 -0.9681  1.1872
 4005WAT      O12533   1.727   4.218   4.095  0.2637  0.1180  0.5639
 4005WAT     H112534   1.793   4.207   4.026 -0.4395  0.7826 -0.2455
 4005WAT     H212535   1.768   4.183   4.174  1.6876  0.7590  0.1442
 4006WAT      O12536   2.196   4.317   3.312  0.0668  0.7556  0.0311
 4006WAT     H112537   2.168   4.383   3.249  0.1078  0.8900  0.1512
 4006WAT     H212538   2.170   4.353   3.397  0.3167  0.7349  0.1179
 4007WAT      O12539   2.283   4.719   3.058 -0.5727  1.0914 -0.0883
 4007WAT     H112540   2.255   4.680   2.976  1.5918 -1.0714  0.0687
 4007WAT     H212541   2.221   4.687   3.123  0.3394 -1.0910 -0.2075
 4008WAT      O12542   1.820   5.098   1.034  0.5104 -0.2039 -0.2819
 4008WAT     H112543   1.882   5.143   0.977 -0.0777 -0.2600 -0.9681
 4008WAT     H212544   1.737   5.102   0.988  0.1267 -0.6731  0.3502
 4009WAT      O12545   2.997   5.484   3.175  0.4886 -0.3328 -0.4113
 4009WAT     H112546   3.017   5.415   3.111  1.3919 -1.4118  0.9691
 4009WAT     H212547   3.072   5.483   3.234 -0.3230  0.6377  0.6572
 4010WAT      O12548   3.931   4.022   3.496  0.3292 -0.0563 -0.6277
 4010WAT     H112549   3.970   3.936   3.478  0.3113 -0.2465  0.2259
 4010WAT     H212550   3.991   4.064   3.556 -1.0739 -0.6180  1.2516
 4011WAT      O12551   2.588   5.188   3.822  0.5742  0.1729 -0.3050
 4011WAT     H112552   2.566   5.114   3.766  2.5166 -0.6847 -0.0189
 4011WAT     H212553   2.590   5.152   3.911 -0.9663  1.1783  0.1959
 4012WAT      O12554   2.531   1.615   3.488 -0.0811  0.2099 -0.4158
 4012WAT     H112555   2.591   1.688   3.469 -1.1046  0.7519 -1.7655
 4012WAT     H212556   2.460   1.626   3.425  0.1994 -2.5432 -1.3567
 4013WAT      O12557   3.064   5.799   0.203 -0.3490  0.6754 -0.4900
 4013WAT     H112558   3.123   5.731   0.168  0.4606  1.7837 -1.3641
 4013WAT     H212559   3.040   5.851   0.127  0.2094  2.2324  0.3450
 4014WAT      O12560   1.069   5.862   3.769  0.5934  0.3445 -0.0987
 4014WAT     H112561   0.990   5.916   3.763  0.4738  0.5040  2.1969
 4014WAT     H212562   1.045   5.781   3.725 -1.1568  0.0988  1.1808
 4015WAT      O12563   3.772   5.224   2.431 -0.0792 -0.2055  0.3141
 4015WAT     H112564   3.810   5.229   2.343 -0.1989 -2.4299  0.0886
 4015WAT     H212565   3.784   5.312   2.466  0.1574  0.7012 -1.8356
 4016WAT      O12566   1.629   3.747   3.575 -0.0774 -0.0742  0.1996
 4016WAT     H112567   1.713   3.709   3.551 -1.0513 -2.2045 -0.0671
 4016WAT     H212568   1.596   3.785   3.494 -0.6532 -1.8967 -0.4837
 4017WAT      O12569   2.722   3.871   4.719 -0.2174 -0.3873  0.2106
 4017WAT     H112570   2.802   3.821   4.701 -0.3474 -0.0233 -1.5906
 4017WAT     H212571   2.732   3.901   4.809  1.3084 -1.0173  0.2780
 4018WAT      O12572   1.441   5.401   2.556 -0.5071  0.4716 -0.5033
 4018WAT     H112573   1.509   5.386   2.491  0.0936  0.0512  0.2029
 4018WAT     H212574   1.387   5.323   2.553  0.4487 -0.2616  0.5867
 4019WAT      O12575   4.190   2.755   4.756  0.5356  0.5813  0.1999
 4019WAT     H112576   4.144   2.679   4.789 -0.8081  1.0521 -0.5034
 4019WAT     H212577   4.281   2.740   4.779  0.8407 -2.6209 -2.3375
 4020WAT      O12578   2.831   4.364   3.235 -0.0735  0.4346  0.2614
 4020WAT     H112579   2.760   4.336   3.293  0.0639  1.4042  0.9198
 4020WAT     H212580   2.822   4.459   3.231  0.7015  0.4919 -0.3065
 4021WAT      O12581   2.733   4.490   4.913  0.0977 -0.0103 -0.4110
 4021WAT     H112582   2.726   4.530   4.827  0.6552  0.0408 -0.4314
 4021WAT     H212583   2.769   4.403   4.897 -1.3370 -0.6496 -0.3951
 4022WAT      O12584   3.431   2.975   3.889 -0.0807  0.4288  0.2495
 4022WAT     H112585   3.357   3.031   3.914 -0.2293  0.5793 -0.5042
 4022WAT     H212586   3.394   2.914   3.825  0.2068 -0.1863  0.6643
 4023WAT      O12587   3.182   6.117   5.377  0.8463  0.0271  0.3591
 4023WAT     H112588   3.107   6.094   5.322  0.5785 -2.8756  1.7775
 4023WAT     H212589   3.156   6.200   5.418 -0.0198  0.9093 -1.8279
 4024WAT      O12590   4.336   4.758   3.908 -0.0539  0.3161 -0.4256
 4024WAT     H112591   4.378   4.718   3.984 -1.9697  0.3742  0.7300
 4024WAT     H212592   4.249   4.719   3.906 -0.9889  2.3254 -0.9662
 4025WAT      O12593   5.385   4.313   4.856  0.0378  0.2831  0.3139
 4025WAT     H112594   5.383   4.256   4.778 -1.3530 -0.9541  1.1933
 4025WAT     H212595   5.408   4.399   4.822  0.7542 -0.4864 -1.2821
 4026WAT      O12596   3.562   0.444   3.756 -0.0836 -0.7886 -0.5133
 4026WAT     H112597   3.484   0.432   3.702 -0.2034  0.3781 -0.6109
 4026WAT     H212598   3.631   0.397   3.709 -0.6227 -1.4732 -0.6431
 4027WAT      O12599   0.441   5.948   3.871  0.1198 -0.2726 -0.5640
 4027WAT     H112600   0.356   5.982   3.902  0.1622 -0.2163 -0.5086
 4027WAT     H212601   0.420   5.900   3.791 -0.0664 -0.9009 -0.1414
 4028WAT      O12602   2.442   5.855   3.547 -0.3578 -0.3218 -0.6724
 4028WAT     H112603   2.377   5.841   3.615 -0.7653 -0.7948 -1.1506
 4028WAT     H212604   2.486   5.770   3.538 -0.0674 -0.1654 -0.7491
 4029WAT      O12605   2.532   4.887   0.615  0.5291 -0.4118 -0.4317
 4029WAT     H112606   2.572   4.879   0.701  1.1965 -1.0133 -0.7857
 4029WAT     H212607   2.457   4.946   0.628 -0.0878 -1.4201  0.8003
 4030WAT      O12608   2.593   0.364   4.928 -0.4340  0.1073  0.4677
 4030WAT     H112609   2.571   0.366   5.021  1.3403  0.5593  0.9141
 4030WAT     H212610   2.576   0.453   4.897 -0.1593  0.1957  0.5730
 4031WAT      O12611   2.910   0.853   3.417 -0.7093  0.5758  0.0359
 4031WAT     H112612   2.828   0.808   3.400 -0.6110  0.5447 -0.3808
 4031WAT     H212613   2.894   0.944   3.390 -0.3201  0.3643 -0.9975
 4032WAT      O12614   3.090   3.670   2.823 -0.3899  0.2394  0.0001
 4032WAT     H112615   3.105   3.675   2.729 -0.7642  0.3270 -0.0581
 4032WAT     H212616   3.083   3.576   2.841 -0.8286  0.2401 -0.1473
 4033WAT      O12617   2.803   3.584   5.425  0.3293 -0.4137  0.2488
 4033WAT     H112618   2.867   3.515   5.405 -0.0331 -1.2882  1.8454
 4033WAT     H212619   2.788   3.575   5.520  0.7067  2.2633  0.6418
 4034WAT      O12620   1.876   3.763   2.861 -0.9835  0.3506  0.1881
 4034WAT     H112621   1.812   3.786   2.794  0.5276 -0.2673 -1.5496
 4034WAT     H212622   1.920   3.845   2.882 -1.5576  0.5720  0.5584
 4035WAT      O12623   2.153   4.387   4.004 -0.0527 -0.5147 -0.3156
 4035WAT     H112624   2.147   4.340   4.087  0.3095 -0.8612 -0.4837
 4035WAT     H212625   2.167   4.478   4.030  0.7977 -0.7252  0.0056
 4036WAT      O12626   2.595   0.134   5.355 -0.0493 -0.4835 -0.7905
 4036WAT     H112627   2.522   0.122   5.295  0.7669 -0.9269 -1.7364
 4036WAT     H212628   2.590   0.060   5.415 -0.8386 -0.0693 -0.3364
 4037WAT      O12629   2.961   5.977   5.185 -0.2041 -0.0097  0.3947
 4037WAT     H112630   2.974   5.967   5.091 -2.2281 -0.1999  0.0868
 4037WAT     H212631   2.875   5.940   5.201 -0.0352  0.3217  2.2875
 4038WAT      O12632   0.058   2.168   3.492  0.3044 -0.3484 -0.0600
 4038WAT     H112633   0.054   2.216   3.409  0.4265 -1.1403 -0.5367
 4038WAT     H212634   0.097   2.083   3.469 -1.7368 -1.4694  0.3679
 4039WAT      O12635   1.424   2.760   4.373 -0.7244 -0.1178  0.1351
 4039WAT     H112636   1.329   2.751   4.383 -1.0281  2.0232 -0.3051
 4039WAT     H212637   1.441   2.852   4.396  1.3050 -0.5728  0.6078
 4040WAT      O12638   2.245   3.619   0.084  0.2414  0.3187  0.1508
 4040WAT     H112639   2.246   3.527   0.110 -0.5994 -0.2154 -1.5502
 4040WAT     H212640   2.156   3.635   0.055  0.9065  1.0513 -1.6349
 4041WAT      O12641   2.219   5.565   3.577  0.1299  0.4649 -0.4984
 4041WAT     H112642   2.276   5.591   3.505  0.0926 -0.0104 -0.7088
 4041WAT     H212643   2.248   5.617   3.651  1.6925 -0.6420 -0.2713
 4042WAT      O12644   1.355   3.376   5.139 -0.0537  0.8157  0.2456
 4042WAT     H112645   1.296   3.301   5.134 -0.2702  0.9622  0.5131
 4042WAT     H212646   1.413   3.356   5.213 -0.7432  1.3428  0.9535
 4043WAT      O12647   1.499   0.993   4.536  0.7435  0.8878  0.3129
 4043WAT     H112648   1.427   1.041   4.495  0.2476 -0.4489 -0.4344
 4043WAT     H212649   1.490   0.904   4.505  0.4655 -0.1895  3.1780
 4044WAT      O12650   0.044   2.274   4.546  0.1730 -0.4072 -0.0387
 4044WAT     H112651   0.099   2.218   4.491  0.2755 -0.8463  0.5049
 4044WAT     H212652   0.036   2.356   4.496 -0.9598 -1.2955 -1.4011
 4045WAT      O12653   2.617   4.415   5.333  0.1017  0.8597  0.3417
 4045WAT     H112654   2.550   4.366   5.287  2.3370  0.7363 -3.1571
 4045WAT     H212655   2.581   4.504   5.341 -1.8764 -0.0175  2.0164
 4046WAT      O12656   2.078   4.793   4.196  0.7046  0.4959 -0.0822
 4046WAT     H112657   1.998   4.793   4.144  1.7228 -0.4265 -1.7203
 4046WAT     H212658   2.125   4.714   4.169  1.7456  0.5060  1.5426
 4047WAT      O12659   2.165   3.580   2.262 -0.1314  0.1070 -0.0745
 4047WAT     H112660   2.210   3.663   2.248  3.0271 -1.3448  0.5693
 4047WAT     H212661   2.102   3.599   2.332  1.4286  1.7037  0.9916
 4048WAT      O12662   1.904   4.192   3.882 -0.3154  0.7203  0.9021
 4048WAT     H112663   1.983   4.246   3.896  0.2070 -0.1486  1.3832
 4048WAT     H212664   1.898   4.184   3.787  0.0337  1.0162  0.8507
 4049WAT      O12665   2.709   4.985   4.088 -0.0779 -0.0306 -0.1041
 4049WAT     H112666   2.636   5.037   4.122  0.4583  1.5183 -1.2026
 4049WAT     H212667   2.787   5.029   4.121  0.3858 -0.9199  0.0111
 4050WAT      O12668   3.689   2.934   3.874 -0.1106 -0.2055  0.2619
 4050WAT     H112669   3.602   2.967   3.895 -0.5844 -1.3995  0.2648
 4050WAT     H212670   3.685   2.910   3.782 -0.0128 -0.9213  0.4355
 4051WAT      O12671   1.872   2.978   1.261 -0.2938  0.1248 -0.0941
 4051WAT     H112672   1.888   3.067   1.292  0.0405 -0.7097  2.2967
 4051WAT     H212673   1.900   2.922   1.333  0.3835 -1.9860 -1.8800
 4052WAT      O12674   3.254   5.654   3.939 -0.4938  0.1750 -0.4101
 4052WAT     H112675   3.291   5.726   3.889  2.2043 -1.8346 -1.5220
 4052WAT     H212676   3.317   5.638   4.010 -1.0664 -0.9973 -0.1247
 4053WAT      O12677   2.608   4.281   3.382  0.1112 -0.2351 -0.1768
 4053WAT     H112678   2.542   4.216   3.404  0.3600 -0.6184 -0.5401
 4053WAT     H212679   2.564   4.365   3.391 -0.0822 -0.4319  0.7477
 4054WAT      O12680   1.233   2.360   2.639  0.1781  0.5578  0.2153
 4054WAT     H112681   1.282   2.363   2.557 -0.5449  0.4033 -0.2349
 4054WAT     H212682   1.152   2.407   2.620 -0.8662 -1.1425  0.2284
 4055WAT      O12683   1.972   5.687   4.707 -0.2365 -0.0037  0.5849
 4055WAT     H112684   2.064   5.665   4.691 -0.4487 -0.4976  0.0305
 4055WAT     H212685   1.934   5.607   4.744 -0.5689  0.0204  0.3056
 4056WAT      O12686   3.081   4.604   4.809  0.3598 -0.2156  0.1935
 4056WAT     H112687   3.112   4.695   4.815 -0.4737  0.2268 -1.4709
 4056WAT     H212688   3.006   4.601   4.867 -0.0047  0.3657 -0.2320
 4057WAT      O12689   3.240   0.701   4.263 -0.2369 -0.5003  0.3960
 4057WAT     H112690   3.291   0.779   4.282 -1.1281 -0.2277  1.9163
 4057WAT     H212691   3.239   0.694   4.168 -1.0526  1.9885  0.1601
 4058WAT      O12692   4.163   4.419   3.874  0.1192 -0.0257  0.1073
 4058WAT     H112693   4.121   4.338   3.903 -2.0147  0.3640 -1.6686
 4058WAT     H212694   4.138   4.483   3.940 -2.4114  0.2425 -0.9953
 4059WAT      O12695   4.973   4.580   1.979 -0.2273  0.1671 -0.2746
 4059WAT     H112696   4.937   4.495   2.005 -1.1134  0.6368  0.0612
 4059WAT     H212697   4.966   4.581   1.883  0.4911 -0.4352 -0.3459
 4060WAT      O12698   4.905   4.122   5.286 -0.0718 -0.0854  0.0445
 4060WAT     H112699   4.974   4.125   5.353  0.6863 -1.1805 -0.6371
 4060WAT     H212700   4.893   4.213   5.259 -0.0189  0.3026  1.2938
 4061WAT      O12701   5.308   4.839   3.895  0.2609  0.0913  0.6751
 4061WAT     H112702   5.403   4.850   3.894  0.2577  0.6847  2.6576
 4061WAT     H212703   5.293   4.755   3.937 -0.0937 -0.4144 -0.4291
 4062WAT      O12704   2.706   4.914   3.302  0.1062 -0.7841  0.2470
 4062WAT     H112705   2.615   4.900   3.276 -0.2081 -0.0694  0.8917
 4062WAT     H212706   2.701   4.983   3.369  1.2920  0.5907 -1.0043
 4063WAT      O12707   1.977   2.637   4.573 -0.0658  0.0329 -0.4457
 4063WAT     H112708   1.944   2.595   4.493  0.0897 -0.5656 -0.2008
 4063WAT     H212709   2.055   2.684   4.545 -1.8415  2.7135 -1.3564
 4064WAT      O12710   3.145   1.443   4.225  0.5976 -0.6588 -0.4431
 4064WAT     H112711   3.231   1.427   4.186  1.0698  0.3631  0.1139
 4064WAT     H212712   3.147   1.396   4.308  1.0466  0.2349  0.0667
 4065WAT      O12713   3.460   4.521   3.411  0.1527  0.1812 -0.3521
 4065WAT     H112714   3.442   4.611   3.385  0.5905  0.6130  0.7925
 4065WAT     H212715   3.387   4.496   3.467 -0.2875 -0.4032 -1.1732
 4066WAT      O12716   2.839   4.180   4.065  0.2481 -1.0133  0.2099
 4066WAT     H112717   2.789   4.175   3.984  0.0249 -1.7083  0.3884
 4066WAT     H212718   2.879   4.094   4.075  0.7354 -0.7559  0.5517
 4067WAT      O12719   2.573   3.726   4.166 -0.1147 -0.0837 -0.4000
 4067WAT     H112720   2.597   3.707   4.257  1.8658  1.2848 -0.5811
 4067WAT     H212721   2.521   3.806   4.172 -1.4929 -0.9422 -0.3654
 4068WAT      O12722   1.996   3.517   2.890  0.7090 -0.1175 -0.2047
 4068WAT     H112723   1.987   3.602   2.848 -0.4465 -0.0443  0.1566
 4068WAT     H212724   2.035   3.461   2.823 -1.0674 -0.0018 -1.3916
 4069WAT      O12725   2.319   1.851   3.589  0.2395 -0.3150  0.2514
 4069WAT     H112726   2.282   1.763   3.603 -1.6904  0.3775 -0.1012
 4069WAT     H212727   2.255   1.894   3.532  1.8023  0.9087 -0.6442
 4070WAT      O12728   2.229   3.614   4.509  0.2606  0.3853 -0.0838
 4070WAT     H112729   2.272   3.537   4.546  0.3765  0.3879 -0.2102
 4070WAT     H212730   2.140   3.585   4.490  0.9552 -0.4793 -2.4377
 4071WAT      O12731   3.932   4.256   4.821  0.1783 -0.1499 -0.0005
 4071WAT     H112732   3.900   4.272   4.733 -0.7014  0.7614  0.4650
 4071WAT     H212733   3.932   4.161   4.830  2.9056 -0.4412 -1.9007
 4072WAT      O12734   2.059   3.729   4.756 -0.6758 -0.0425  0.0236
 4072WAT     H112735   2.155   3.731   4.759 -0.7023  1.2663  2.6983
 4072WAT     H212736   2.035   3.651   4.807 -1.0962 -0.8545 -1.3373
 4073WAT      O12737   3.490   4.578   0.828  0.2409 -0.6771 -0.2888
 4073WAT     H112738   3.394   4.581   0.828  0.1605  0.3692  3.0168
 4073WAT     H212739   3.516   4.652   0.772 -0.8878 -0.4155 -0.4875
 4074WAT      O12740   2.674   4.858   2.559 -0.2044 -0.9750 -0.1487
 4074WAT     H112741   2.619   4.779   2.562  1.3037 -2.1226 -1.1358
 4074WAT     H212742   2.614   4.928   2.533 -1.9019 -1.4455  2.1459
 4075WAT      O12743   1.735   1.490   2.837 -0.0241  0.4337 -0.0298
 4075WAT     H112744   1.648   1.495   2.875  0.6770 -0.8783  1.9064
 4075WAT     H212745   1.735   1.556   2.768 -1.9075  1.8411  1.2105
 4076WAT      O12746   2.981   2.831   4.085  0.4355  0.1591  1.0091
 4076WAT     H112747   3.007   2.824   4.177  0.6640 -0.7765  0.8833
 4076WAT     H212748   2.942   2.746   4.065  0.1422  0.4508  0.3142
 4077WAT      O12749   4.012   5.667   4.362 -0.2901  0.1599 -0.3536
 4077WAT     H112750   3.988   5.585   4.318 -1.1165 -0.3875  1.0401
 4077WAT     H212751   4.103   5.655   4.388 -0.7079 -0.7859  0.7717
 4078WAT      O12752   2.453   4.264   0.607 -0.2318  0.1177 -0.4471
 4078WAT     H112753   2.410   4.348   0.620 -0.2767  0.0923 -0.4296
 4078WAT     H212754   2.524   4.263   0.671  0.3583  0.5415 -1.0963
 4079WAT      O12755   4.056   5.407   4.701  0.0122  0.8268  0.0986
 4079WAT     H112756   4.126   5.468   4.724 -0.2149  0.9853  0.3958
 4079WAT     H212757   4.044   5.354   4.780 -0.0910  0.6953 -0.0054
 4080WAT      O12758   2.286   5.295   3.991 -0.0440  0.0926 -0.0905
 4080WAT     H112759   2.369   5.249   3.999  0.5976  1.2089 -0.1791
 4080WAT     H212760   2.284   5.355   4.065 -0.0044  1.2441 -1.0009
 4081WAT      O12761   3.157   2.248   5.106 -0.4544  0.2615 -0.1290
 4081WAT     H112762   3.233   2.205   5.147  1.4862  3.7545  0.3073
 4081WAT     H212763   3.113   2.292   5.179 -1.3388  0.4554 -0.7740
 4082WAT      O12764   3.167   4.015   5.335 -0.2460 -0.4902 -0.3402
 4082WAT     H112765   3.192   3.954   5.403  0.4583 -1.1191 -1.1468
 4082WAT     H212766   3.078   4.042   5.358 -0.0786 -0.8258  0.7124
 4083WAT      O12767   1.196   0.561   4.174 -0.1184  0.2669  0.0289
 4083WAT     H112768   1.245   0.506   4.113 -0.8786 -0.5398  0.1157
 4083WAT     H212769   1.193   0.510   4.255 -0.5390  0.5866  0.2183
 4084WAT      O12770   2.325   5.167   1.994  0.1556 -0.1614 -0.3343
 4084WAT     H112771   2.381   5.235   2.033  0.8838 -0.8556 -0.1416
 4084WAT     H212772   2.237   5.203   1.999  0.5165  0.7210 -0.1169
 4085WAT      O12773   2.619   2.836   3.965 -0.3635 -0.1889 -0.3233
 4085WAT     H112774   2.543   2.841   4.023  0.2711  0.5452  0.4690
 4085WAT     H212775   2.629   2.742   3.948 -0.8168 -0.3834  0.4170
 4086WAT      O12776   3.253   2.137   3.805 -0.0055  0.4424  0.1589
 4086WAT     H112777   3.158   2.129   3.818 -0.0931  0.8325 -0.2081
 4086WAT     H212778   3.264   2.223   3.764  0.4985  0.3582  0.1143
 4087WAT      O12779   2.868   2.863   3.438  0.0712  0.1713  0.7998
 4087WAT     H112780   2.828   2.817   3.512 -0.8021 -0.0187  0.2364
 4087WAT     H212781   2.872   2.954   3.465  1.0302 -0.1026  1.6028
 4088WAT      O12782   1.587   4.941   4.089 -0.1254 -0.2851  0.2783
 4088WAT     H112783   1.582   4.851   4.120  0.7562  1.0292  5.0199
 4088WAT     H212784   1.496   4.972   4.089 -0.3696 -0.9403 -0.8383
 4089WAT      O12785   2.200   4.185   4.276 -0.0653 -0.0148 -0.0667
 4089WAT     H112786   2.289   4.155   4.295 -0.1629 -1.8238 -2.0254
 4089WAT     H212787   2.149   4.105   4.266 -1.2928  0.8842 -1.5637
 4090WAT      O12788   3.032   5.036   2.914 -0.9345 -0.2436  0.2184
 4090WAT     H112789   2.974   4.976   2.867 -0.4544 -0.9136  0.4696
 4090WAT     H212790   3.002   5.030   3.005 -1.2227  0.2988  0.1607
 4091WAT      O12791   4.255   4.056   3.315  0.3453  0.2620 -0.0708
 4091WAT     H112792   4.272   4.150   3.315 -0.9474  0.5331  1.7207
 4091WAT     H212793   4.272   4.028   3.405  1.3752 -1.3754 -0.7192
 4092WAT      O12794   3.429   2.427   5.068 -0.2889 -0.9679  0.0179
 4092WAT     H112795   3.354   2.484   5.051  0.6255  0.2894 -0.0149
 4092WAT     H212796   3.438   2.427   5.163  1.0580  0.8534 -0.0516
 4093WAT      O12797   3.680   4.044   5.168  0.2637 -0.3051 -0.1278
 4093WAT     H112798   3.756   4.082   5.123  0.2186 -1.0661 -0.8611
 4093WAT     H212799   3.604   4.079   5.121  0.1568  0.2599  0.4504
 4094WAT      O12800   1.658   4.278   5.878 -0.0704  0.5365 -0.0987
 4094WAT     H112801   1.681   4.216   5.808 -2.4598 -1.7236  0.9442
 4094WAT     H212802   1.631   4.357   5.832  1.2812  0.2032 -1.5697
 4095WAT      O12803   2.953   3.448   5.228 -0.3563  0.2027  0.1802
 4095WAT     H112804   3.042   3.415   5.240 -0.8740 -0.7447  1.7398
 4095WAT     H212805   2.960   3.509   5.155  1.6819  0.5553  0.6000
 4096WAT      O12806   1.596   4.668   4.139 -0.0489  0.0340 -0.2963
 4096WAT     H112807   1.671   4.609   4.146  0.9058  1.3501  1.5021
 4096WAT     H212808   1.537   4.640   4.209  0.2119  0.9028  0.2854
 4097WAT      O12809   2.148   4.939   2.053 -0.1880 -0.6971 -0.0867
 4097WAT     H112810   2.183   4.892   2.128 -1.0155 -0.0452  0.7315
 4097WAT     H212811   2.198   5.020   2.050 -0.6461 -0.4039  0.2019
 4098WAT      O12812   3.104   4.903   3.591  0.8745 -0.0840  0.2181
 4098WAT     H112813   3.113   4.876   3.683 -1.0311 -0.7605  0.2282
 4098WAT     H212814   3.015   4.878   3.567  1.4394 -0.1651 -1.9210
 4099WAT      O12815   2.321   5.045   0.639  0.3103  0.5318 -0.5734
 4099WAT     H112816   2.259   5.118   0.642 -0.0940  0.1676  0.1987
 4099WAT     H212817   2.279   4.980   0.584 -1.0263 -0.5985  1.6297
 4100WAT      O12818   2.553   5.048   1.147 -0.2693  0.3798  0.6748
 4100WAT     H112819   2.527   5.099   1.224 -1.2756  0.3391  0.3676
 4100WAT     H212820   2.551   5.111   1.075  1.5346  0.6374  0.7997
 4101WAT      O12821   2.577   5.327   2.964 -0.1946 -0.6384 -0.4778
 4101WAT     H112822   2.584   5.416   2.999 -0.3863 -1.5204  2.0161
 4101WAT     H212823   2.646   5.322   2.897  1.0536  0.8316  0.6185
 4102WAT      O12824   2.856   4.748   0.466 -0.2955  0.2779  0.7218
 4102WAT     H112825   2.800   4.693   0.521  1.0592 -1.1734  0.7194
 4102WAT     H212826   2.922   4.783   0.526  0.6931 -0.6394  0.1997
 4103WAT      O12827   3.268   2.752   0.080  0.1445 -0.2445 -0.0296
 4103WAT     H112828   3.363   2.763   0.070 -0.1184  0.5449 -2.1537
 4103WAT     H212829   3.254   2.658   0.074  0.8047 -0.3903  0.5680
 4104WAT      O12830   2.559   5.853   1.957 -0.2858  0.2372 -0.2730
 4104WAT     H112831   2.488   5.876   1.898  0.3092  0.2428 -0.9923
 4104WAT     H212832   2.601   5.937   1.977  0.4861  0.0550 -1.1020
 4105WAT      O12833   3.332   4.238   3.464 -0.3190 -0.1105  0.0997
 4105WAT     H112834   3.369   4.179   3.398 -0.4093 -0.5482  0.4330
 4105WAT     H212835   3.268   4.290   3.416 -0.6186 -0.6469 -0.1022
 4106WAT      O12836   1.551   4.364   3.931  0.4974 -0.3926  0.0776
 4106WAT     H112837   1.601   4.303   3.986 -0.0362  0.0244  1.0526
 4106WAT     H212838   1.464   4.326   3.927  0.1744  0.2679  0.6560
 4107WAT      O12839   2.865   3.944   0.777 -0.1025 -0.0845 -0.0943
 4107WAT     H112840   2.806   3.976   0.845 -0.6829 -3.5993  1.2750
 4107WAT     H212841   2.818   3.961   0.695 -0.6011  1.8170  0.5352
 4108WAT      O12842   2.178   4.123   1.627  0.1133 -0.1260  0.2778
 4108WAT     H112843   2.157   4.206   1.583 -1.0926 -1.5583 -2.1162
 4108WAT     H212844   2.094   4.093   1.662  0.4598 -0.4928  0.8038
 4109WAT      O12845   2.736   3.098   1.574  0.0619 -0.2080  0.5997
 4109WAT     H112846   2.746   3.023   1.633 -0.8091 -1.9357 -1.3296
 4109WAT     H212847   2.670   3.153   1.616 -0.8691 -1.6134  1.0203
 4110WAT      O12848   0.663   5.818   3.939 -0.0892  0.3296 -0.1750
 4110WAT     H112849   0.591   5.862   3.894 -0.4371 -0.7820 -0.7494
 4110WAT     H212850   0.704   5.886   3.992 -0.6414  1.3141 -0.9875
 4111WAT      O12851   4.096   5.241   1.128  0.5566 -0.1505  0.0189
 4111WAT     H112852   4.103   5.245   1.223  0.2531  1.1361  0.0029
 4111WAT     H212853   4.170   5.292   1.096  0.4782 -0.3170 -0.4307
 4112WAT      O12854   2.522   3.962   2.117  0.0132  0.2442 -0.4615
 4112WAT     H112855   2.532   4.046   2.071  2.5426 -0.3113 -1.1172
 4112WAT     H212856   2.522   3.985   2.210  2.9333  0.9410 -0.5260
 4113WAT      O12857   3.954   5.636   1.882 -0.4245 -0.1110  0.6046
 4113WAT     H112858   3.970   5.678   1.797 -1.7944 -1.6443 -0.4706
 4113WAT     H212859   3.961   5.543   1.864  0.9592 -0.4627  2.5997
 4114WAT      O12860   1.327   3.525   0.813 -1.1543 -1.2674  0.2483
 4114WAT     H112861   1.350   3.609   0.775  1.9200 -1.1087  2.1594
 4114WAT     H212862   1.236   3.537   0.842 -1.4162  0.7092 -1.1578
 4115WAT      O12863   0.296   4.558   2.618 -0.2903  0.8550  0.2797
 4115WAT     H112864   0.253   4.612   2.552  0.5401 -0.8274 -1.7628
 4115WAT     H212865   0.286   4.468   2.586  0.9702  0.0453  1.9666
 4116WAT      O12866   3.259   5.109   1.977 -0.3289 -0.3901  0.1702
 4116WAT     H112867   3.319   5.082   2.047 -1.0634  0.3634  1.1300
 4116WAT     H212868   3.172   5.103   2.017 -0.7949 -0.2658 -0.7969
 4117WAT      O12869   4.264   4.886   0.269  0.0326 -0.5797  0.1286
 4117WAT     H112870   4.208   4.874   0.345  0.4528  0.3563  0.6119
 4117WAT     H212871   4.219   4.952   0.216  1.0890  0.9404  1.0097
 4118WAT      O12872   4.882   4.671   1.738 -0.5176  0.3401 -0.4538
 4118WAT     H112873   4.955   4.654   1.678 -0.5532  0.0542 -0.4175
 4118WAT     H212874   4.809   4.620   1.703  0.0953 -1.7166  1.1107
 4119WAT      O12875   2.774   3.090   2.569  0.2956  0.2998 -0.4714
 4119WAT     H112876   2.869   3.102   2.572  0.3668  1.0025 -2.9067
 4119WAT     H212877   2.739   3.173   2.601  0.5529  0.7638 -1.3646
 4120WAT      O12878   1.292   5.232   2.306 -0.0475  0.8826  0.3591
 4120WAT     H112879   1.344   5.155   2.283  1.7181  1.5470  1.8211
 4120WAT     H212880   1.348   5.306   2.282 -1.4129  1.7266 -0.3504
 4121WAT      O12881   2.949   2.791   1.104  0.1634  0.1777  0.6298
 4121WAT     H112882   2.868   2.841   1.093 -0.6407 -1.0359  0.8232
 4121WAT     H212883   2.997   2.804   1.023 -1.4759 -1.2335 -0.6582
 4122WAT      O12884   1.987   3.239   1.321  0.2111  0.0438 -0.5157
 4122WAT     H112885   2.064   3.186   1.341  1.2926  1.9562  0.5974
 4122WAT     H212886   2.004   3.273   1.233 -0.0998 -0.7201 -0.8875
 4123WAT      O12887   2.226   4.272   2.069 -0.1402 -0.2588  0.6142
 4123WAT     H112888   2.185   4.208   2.011  0.0669  0.8279 -0.7643
 4123WAT     H212889   2.308   4.294   2.027 -0.4190  1.2673  0.8035
 4124WAT      O12890   3.147   2.471   1.666  0.0883 -0.2848 -0.1484
 4124WAT     H112891   3.098   2.481   1.584  0.1214 -1.1646 -0.2789
 4124WAT     H212892   3.096   2.521   1.730 -0.6198 -0.6373 -0.4287
 4125WAT      O12893   3.516   4.181   3.670 -0.4625 -0.0169  0.3350
 4125WAT     H112894   3.589   4.156   3.613  0.0442  0.9119  0.5704
 4125WAT     H212895   3.452   4.220   3.610  0.2185  1.2838  0.4187
 4126WAT      O12896   3.621   5.794   2.370 -0.4063  0.2230  0.4941
 4126WAT     H112897   3.622   5.725   2.304 -1.5632 -0.8249  1.5240
 4126WAT     H212898   3.588   5.751   2.449  1.7689  1.1994  2.0322
 4127WAT      O12899   2.617   4.984   1.698  0.2347  0.3573 -0.3354
 4127WAT     H112900   2.628   4.890   1.686  1.5922  0.7166 -2.4082
 4127WAT     H212901   2.538   4.992   1.751  0.1169 -1.9290 -0.0576
 4128WAT      O12902   1.740   4.560   2.032 -0.1015  0.2850  0.4249
 4128WAT     H112903   1.773   4.557   1.942  0.7323  1.1326  0.6918
 4128WAT     H212904   1.781   4.485   2.075  0.0762  0.3052  0.2932
 4129WAT      O12905   2.966   3.189   1.444  0.4268 -0.3944 -0.3848
 4129WAT     H112906   2.877   3.217   1.466  0.3516 -0.2567 -0.8671
 4129WAT     H212907   2.971   3.099   1.478  1.4808  0.9169  3.4425
 4130WAT      O12908   4.534   3.619   3.963 -0.3746 -0.2644 -0.1567
 4130WAT     H112909   4.579   3.535   3.962 -0.2919 -0.2221  0.0537
 4130WAT     H212910   4.521   3.640   3.870  0.4607 -0.0540 -0.2345
 4131WAT      O12911   2.921   5.056   3.189 -0.1750  0.0702  0.0590
 4131WAT     H112912   2.974   5.100   3.256  0.7086  0.7096 -1.0267
 4131WAT     H212913   2.840   5.031   3.235  0.1988  0.9331  1.2316
 4132WAT      O12914   2.256   3.832   2.290  0.3944 -0.4060 -0.1781
 4132WAT     H112915   2.350   3.825   2.306  0.4038  0.0374 -0.0312
 4132WAT     H212916   2.250   3.874   2.204  0.3343 -1.7190 -0.8501
 4133WAT      O12917   0.065   5.916   3.138 -0.6086  0.5955  0.5199
 4133WAT     H112918   0.066   5.919   3.233 -2.0161 -0.8824  0.6153
 4133WAT     H212919   0.052   5.824   3.116  4.1558  0.0517 -1.2259
 4134WAT      O12920   4.158   4.057   2.277 -0.4505 -0.0449 -0.3132
 4134WAT     H112921   4.085   4.118   2.287  0.3045  1.0613 -1.2192
 4134WAT     H212922   4.200   4.055   2.363 -1.2131 -0.2668  0.0597
 4135WAT      O12923   3.258   5.872   2.415  0.4216 -0.6199  0.5946
 4135WAT     H112924   3.315   5.860   2.492 -1.1355 -1.1240  1.7209
 4135WAT     H212925   3.248   5.966   2.407  0.8493 -0.5520  0.7986
 4136WAT      O12926   3.115   2.837   0.809 -0.1132 -0.4008 -0.2790
 4136WAT     H112927   3.188   2.794   0.854 -1.2343 -2.0448  0.0765
 4136WAT     H212928   3.115   2.800   0.721 -0.6349 -0.5711 -0.2118
 4137WAT      O12929   4.096   4.344   1.765 -0.3325  0.3171  0.4204
 4137WAT     H112930   4.027   4.359   1.700  0.1217  0.5214 -0.0182
 4137WAT     H212931   4.163   4.294   1.717  0.3858  1.1964  0.4951
 4138WAT      O12932   3.187   3.582   2.387  0.6039 -0.4131 -0.2588
 4138WAT     H112933   3.128   3.506   2.389  0.0727 -0.0137 -0.6607
 4138WAT     H212934   3.130   3.657   2.372  1.1316  0.0710  0.1125
 4139WAT      O12935   2.111   3.436   3.138 -0.4576  0.4157  0.5361
 4139WAT     H112936   2.071   3.355   3.169  0.6997  0.6566  2.7995
 4139WAT     H212937   2.081   3.443   3.047 -0.3759 -2.6735  0.1545
 4140WAT      O12938   1.914   4.616   2.762 -0.7513  0.5774  0.2083
 4140WAT     H112939   1.907   4.532   2.807 -0.0682  0.2892 -0.2099
 4140WAT     H212940   1.894   4.595   2.670  2.0372  0.3389 -0.4147
 4141WAT      O12941   6.961   2.515   2.195 -0.4022  0.0781  0.3216
 4141WAT     H112942   7.017   2.444   2.227 -0.8049 -0.5510 -0.3338
 4141WAT     H212943   6.906   2.474   2.129  0.9322  1.4609 -1.7695
 4142WAT      O12944   2.275   4.887   1.253  0.6814  0.0363 -0.1428
 4142WAT     H112945   2.259   4.794   1.267 -0.3719  0.2514  0.1392
 4142WAT     H212946   2.371   4.895   1.254  0.8656 -1.2909 -1.8623
 4143WAT      O12947   2.578   4.481   2.101 -0.5198 -0.3743 -0.3440
 4143WAT     H112948   2.544   4.544   2.038 -1.5862 -0.1112  0.4566
 4143WAT     H212949   2.673   4.483   2.088 -0.2905  2.6919  0.7370
 4144WAT      O12950   3.060   5.273   1.392 -0.2897  0.0042  0.7979
 4144WAT     H112951   3.072   5.278   1.297  0.5773  1.3339  0.9430
 4144WAT     H212952   2.995   5.204   1.405 -1.0681  0.3985 -0.8160
 4145WAT      O12953   3.734   4.154   1.981 -0.1412 -0.0356  0.4590
 4145WAT     H112954   3.688   4.201   1.912  1.1917  1.4692  0.5491
 4145WAT     H212955   3.733   4.063   1.953  0.5394  0.5637 -1.6537
 4146WAT      O12956   4.433   5.465   1.500 -0.1296 -0.3506  0.4470
 4146WAT     H112957   4.439   5.561   1.505 -0.9514 -0.3174  0.8705
 4146WAT     H212958   4.522   5.437   1.476  0.6975  0.3690  2.4423
 4147WAT      O12959   1.818   4.864   3.321  0.9621  0.5665  0.6082
 4147WAT     H112960   1.805   4.942   3.267  0.1245  0.1556  0.1866
 4147WAT     H212961   1.751   4.871   3.389  0.7959  0.1518  0.4887
 4148WAT      O12962   1.352   3.217   1.758 -0.1368 -0.4364 -0.1394
 4148WAT     H112963   1.303   3.287   1.715 -0.9867 -0.7563  0.3031
 4148WAT     H212964   1.406   3.179   1.688  0.7707  1.0113 -0.2776
 4149WAT      O12965   1.162   5.525   3.808  0.6023  0.4756  0.1247
 4149WAT     H112966   1.112   5.563   3.736  0.5318 -0.6503 -0.4396
 4149WAT     H212967   1.096   5.479   3.861  0.8597  0.0661  0.0898
 4150WAT      O12968   2.210   2.668   1.044 -0.0683  1.0069 -0.2838
 4150WAT     H112969   2.167   2.596   0.997  0.0298  1.3198 -0.8536
 4150WAT     H212970   2.301   2.638   1.054 -0.5605 -0.0375  1.6765
 4151WAT      O12971   2.341   3.562   3.058  0.1772  0.3603 -0.6201
 4151WAT     H112972   2.253   3.526   3.070  0.3064  0.3414  0.3429
 4151WAT     H212973   2.391   3.491   3.018  0.7544 -1.0570  2.3683
 4152WAT      O12974   2.967   3.494   0.173  0.2756  0.2030 -0.7257
 4152WAT     H112975   2.919   3.425   0.219 -0.6721  0.7709 -0.8362
 4152WAT     H212976   2.911   3.571   0.180  1.4989  1.0822 -0.2579
 4153WAT      O12977   2.917   4.044   2.673 -0.5768 -0.4520  0.3502
 4153WAT     H112978   2.984   4.002   2.619 -0.6410  0.9560 -0.8937
 4153WAT     H212979   2.942   4.024   2.763  1.4855 -0.0358 -0.0880
 4154WAT      O12980   2.466   3.757   3.342 -0.7332  0.8115 -0.8113
 4154WAT     H112981   2.530   3.751   3.413 -0.7610 -0.0443 -0.8521
 4154WAT     H212982   2.382   3.766   3.388 -0.9658 -1.5346 -0.6475
 4155WAT      O12983   2.296   5.743   4.090  0.0753  0.1638  0.3034
 4155WAT     H112984   2.388   5.737   4.064  0.5279 -0.4360  1.9059
 4155WAT     H212985   2.264   5.653   4.086 -0.8348  0.5320 -1.4714
 4156WAT      O12986   2.396   5.822   2.972 -0.3748 -0.6791  0.2762
 4156WAT     H112987   2.319   5.789   2.925 -1.0944 -0.9474  1.6054
 4156WAT     H212988   2.384   5.917   2.973 -0.3283 -0.6652 -0.1066
 4157WAT      O12989   0.588   2.095   3.775  0.3984 -0.9445 -0.1273
 4157WAT     H112990   0.681   2.088   3.796  0.4719  0.6494  0.2566
 4157WAT     H212991   0.550   2.140   3.850 -1.0495 -3.1306  0.5337
 4158WAT      O12992   1.276   4.176   2.521  0.0328 -0.2526  0.3313
 4158WAT     H112993   1.317   4.182   2.435 -0.1878  1.2946  0.2894
 4158WAT     H212994   1.183   4.168   2.502 -0.0780  0.7468  0.4070
 4159WAT      O12995   2.741   4.589   2.942  0.0866 -0.2191  0.7059
 4159WAT     H112996   2.711   4.548   2.861  0.8131 -1.1990  0.9119
 4159WAT     H212997   2.836   4.578   2.940  0.0205 -1.2712  2.2322
 4160WAT      O12998   1.928   2.839   2.359  0.4434 -0.1689  0.1196
 4160WAT     H112999   1.858   2.893   2.395  0.4292  0.9526 -1.4822
 4160WAT     H213000   1.936   2.766   2.420 -0.6141  0.8279  1.5076
 4161WAT      O13001   2.407   2.948   1.506 -0.1188  0.1043 -0.1506
 4161WAT     H113002   2.471   2.968   1.438 -1.0709  0.0816 -1.0797
 4161WAT     H213003   2.457   2.947   1.587  1.1955 -0.6898 -0.9471
 4162WAT      O13004   2.415   4.145   0.377  0.6730  0.5736  0.4513
 4162WAT     H113005   2.329   4.106   0.395  1.1790 -0.6411  0.3608
 4162WAT     H213006   2.427   4.209   0.447 -1.1396  2.2058 -0.6414
 4163WAT      O13007   2.809   3.593   2.251  0.1611  0.1259  0.0070
 4163WAT     H113008   2.779   3.664   2.194  0.3527 -0.3421 -0.6926
 4163WAT     H213009   2.893   3.568   2.214  0.6799  0.3659  1.0045
 4164WAT      O13010   2.666   2.192   0.837 -0.3944 -0.2770 -0.2036
 4164WAT     H113011   2.624   2.144   0.908 -1.5310 -1.6059 -1.6909
 4164WAT     H213012   2.744   2.139   0.816 -0.8685 -0.7218 -0.8944
 4165WAT      O13013   2.978   4.575   1.123 -0.3322 -0.0839  0.1632
 4165WAT     H113014   3.059   4.526   1.137 -0.8719 -2.4083 -3.5702
 4165WAT     H213015   3.005   4.667   1.132  1.3629 -0.7265  4.4119
 4166WAT      O13016   1.353   0.765   2.992  0.2282 -0.0545  0.0246
 4166WAT     H113017   1.443   0.745   2.964  1.1992 -0.0540  2.7730
 4166WAT     H213018   1.360   0.852   3.031 -0.9592 -0.0723  0.2986
 4167WAT      O13019   2.133   2.661   1.517  0.4293 -0.0405 -0.0286
 4167WAT     H113020   2.141   2.736   1.577 -1.9188 -0.0015  0.3205
 4167WAT     H213021   2.099   2.699   1.436  0.9614 -0.4950 -0.4720
 4168WAT      O13022   2.387   5.065   2.781  0.9730  0.0802  0.1224
 4168WAT     H113023   2.358   5.148   2.744  0.4905 -0.7549 -1.4931
 4168WAT     H213024   2.402   5.083   2.874 -0.6949  1.5650  0.1534
 4169WAT      O13025   2.777   4.010   3.089 -0.4885 -0.1511 -0.8580
 4169WAT     H113026   2.782   4.097   3.049  0.2548 -0.2463 -0.9797
 4169WAT     H213027   2.842   3.957   3.042  0.0755 -0.3893  0.1454
 4170WAT      O13028   0.939   5.437   2.451  0.2178  0.5487 -0.5107
 4170WAT     H113029   0.859   5.383   2.443  0.7801 -0.2000 -1.2495
 4170WAT     H213030   0.924   5.511   2.393 -0.1521  0.6941 -0.2389
 4171WAT      O13031   2.936   5.442   2.126 -0.2088  0.0714 -0.5050
 4171WAT     H113032   3.010   5.466   2.069  0.8189 -1.9669 -0.1140
 4171WAT     H213033   2.925   5.518   2.183  2.2034  0.1345  0.0018
 4172WAT      O13034   0.494   6.054   2.302 -0.1018 -0.3145  0.3283
 4172WAT     H113035   0.521   6.146   2.305 -0.4406 -0.2037  0.0689
 4172WAT     H213036   0.516   6.020   2.389  0.6768 -0.1807  0.1970
 4173WAT      O13037   3.560   5.492   2.654 -0.3109 -0.0268  0.1927
 4173WAT     H113038   3.469   5.464   2.653 -0.4580  0.4238  0.5138
 4173WAT     H213039   3.595   5.455   2.735  0.1401 -1.2509 -0.5358
 4174WAT      O13040   1.659   4.244   2.305 -0.1239  0.2078  0.1411
 4174WAT     H113041   1.713   4.256   2.226  0.4286  1.2187  0.6521
 4174WAT     H213042   1.720   4.214   2.372 -0.8044 -1.8302 -0.0832
 4175WAT      O13043   3.806   5.160   2.696  0.4100  0.0675  0.3994
 4175WAT     H113044   3.803   5.166   2.600  0.4122  0.8224  0.4403
 4175WAT     H213045   3.754   5.235   2.726  1.9816  0.9661  1.0057
 4176WAT      O13046   0.776   4.057   2.026 -0.2871  0.3658 -0.2541
 4176WAT     H113047   0.688   4.092   2.041 -1.0205 -1.2138 -0.7184
 4176WAT     H213048   0.762   3.983   1.968  1.2923 -0.3185  0.2119
 4177WAT      O13049   3.567   3.991   2.373 -0.2386  0.1285  0.2734
 4177WAT     H113050   3.643   4.039   2.340  1.4397 -1.1061  2.0464
 4177WAT     H213051   3.578   3.903   2.338 -1.0698  0.0339  0.2467
 4178WAT      O13052   4.589   3.484   1.806 -0.6586  0.6941 -0.3473
 4178WAT     H113053   4.643   3.419   1.763  0.6986  2.0046 -0.6991
 4178WAT     H213054   4.552   3.536   1.734  0.0953  1.7118 -0.0185
 4179WAT      O13055   3.545   3.592   1.417  0.1936 -0.6310 -0.2651
 4179WAT     H113056   3.592   3.553   1.343  0.3094 -0.3766 -0.3276
 4179WAT     H213057   3.481   3.651   1.376  0.0956 -0.6718 -0.1700
 4180WAT      O13058   2.403   3.620   2.754 -0.0908 -0.1370 -0.0597
 4180WAT     H113059   2.442   3.625   2.841  0.7440  3.3585 -0.4724
 4180WAT     H213060   2.457   3.557   2.707  0.5483 -0.7552  1.4447
 4181WAT      O13061   3.798   1.180   5.984  0.2543  0.1433  0.0443
 4181WAT     H113062   3.823   1.134   6.064 -1.5702  1.8011  1.6871
 4181WAT     H213063   3.867   1.245   5.970  0.4456  0.0205  0.4152
 4182WAT      O13064   4.964   5.779   2.036  0.1274  0.2770 -0.2074
 4182WAT     H113065   5.033   5.782   1.970 -0.2128 -1.9043 -0.7468
 4182WAT     H213066   4.902   5.847   2.009  0.3846 -0.0537 -1.7051
 4183WAT      O13067   3.052   3.087   2.259  0.3789  0.2535  0.4004
 4183WAT     H113068   2.973   3.066   2.308 -0.6163  1.0590 -0.8041
 4183WAT     H213069   3.069   3.009   2.206 -0.6060  0.6645 -0.5747
 4184WAT      O13070   1.604   1.766   1.636  0.3823 -0.3866  0.0308
 4184WAT     H113071   1.550   1.701   1.680  0.9154 -2.7247 -2.5319
 4184WAT     H213072   1.565   1.776   1.549 -0.9560  4.4506  0.8584
 4185WAT      O13073   3.267   4.521   3.119  0.5757 -0.0687 -0.3352
 4185WAT     H113074   3.282   4.488   3.031 -1.3455 -1.1443 -0.3283
 4185WAT     H213075   3.335   4.586   3.133  1.1687 -0.1761 -2.4477
 4186WAT      O13076   2.873   4.591   0.721 -0.0639 -0.1871 -0.0439
 4186WAT     H113077   2.803   4.589   0.656  0.6512  1.0987 -0.8924
 4186WAT     H213078   2.827   4.599   0.805 -0.9583  1.3854 -0.6274
 4187WAT      O13079   1.843   2.808   3.263 -0.1095  0.4708  0.1851
 4187WAT     H113080   1.766   2.862   3.245  0.3971  1.5010  1.0100
 4187WAT     H213081   1.877   2.786   3.176 -2.2618 -1.4619 -0.2805
 4188WAT      O13082   2.390   3.905   3.856  0.7019 -0.5284  0.6371
 4188WAT     H113083   2.445   3.874   3.928 -1.1246 -0.5582  2.0766
 4188WAT     H213084   2.324   3.837   3.846 -1.5146  1.3287  1.7485
 4189WAT      O13085   2.711   4.681   1.023  0.2356 -0.2351 -0.5587
 4189WAT     H113086   2.795   4.653   1.058 -0.7831 -2.3990  0.3767
 4189WAT     H213087   2.654   4.687   1.100 -0.9210 -0.6358 -1.3615
 4190WAT      O13088   3.048   3.901   2.479  0.1462  0.3169  0.1678
 4190WAT     H113089   3.128   3.943   2.510  0.2626 -0.8091  1.4700
 4190WAT     H213090   3.057   3.900   2.383  2.0153 -0.4024  0.3173
 4191WAT      O13091   3.438   5.340   5.750 -0.5295  0.3061 -0.0738
 4191WAT     H113092   3.458   5.419   5.700  2.5329  0.0885  0.6051
 4191WAT     H213093   3.429   5.369   5.840  3.5180 -0.2700  0.6848
 4192WAT      O13094   3.585   1.712   3.278 -0.3084  0.2963  0.1109
 4192WAT     H113095   3.653   1.649   3.306  0.1098  0.8930  0.4804
 4192WAT     H213096   3.600   1.788   3.335 -0.6384  0.8276 -0.5085
 4193WAT      O13097   4.173   4.260   1.381 -0.1944  0.2677 -0.2240
 4193WAT     H113098   4.196   4.350   1.359  0.6278 -0.1258 -1.0297
 4193WAT     H213099   4.099   4.240   1.323  0.5741 -0.0489 -1.1218
 4194WAT      O13100   0.463   5.242   3.520 -0.6733 -0.1352 -0.4009
 4194WAT     H113101   0.409   5.316   3.547  0.2740  1.3993 -2.4104
 4194WAT     H213102   0.553   5.269   3.542 -0.3264 -0.7371 -1.0344
 4195WAT      O13103   2.735   4.775   3.758  0.2960  0.0780 -0.2501
 4195WAT     H113104   2.649   4.803   3.789 -0.2835 -2.3047  0.5069
 4195WAT     H213105   2.797   4.836   3.798 -0.8625  0.3641  1.1658
 4196WAT      O13106   4.143   4.734   2.597 -0.1011  0.4283 -0.3078
 4196WAT     H113107   4.148   4.800   2.528  1.2193  0.2079 -0.4388
 4196WAT     H213108   4.181   4.656   2.559  0.2516  0.1799  0.5292
 4197WAT      O13109   0.478   3.586   1.688  0.2987  0.0522  0.3328
 4197WAT     H113110   0.544   3.594   1.619  0.6363 -1.6196  0.4061
 4197WAT     H213111   0.526   3.552   1.764 -0.8608 -3.1211 -0.1751
 4198WAT      O13112   1.264   4.800   3.796 -0.3586 -0.0062  0.0087
 4198WAT     H113113   1.207   4.795   3.873  2.0066  3.6557  2.3285
 4198WAT     H213114   1.332   4.735   3.813 -0.6752 -0.2827  0.2373
 4199WAT      O13115   2.297   0.183   4.554 -0.1912 -0.1340 -0.2575
 4199WAT     H113116   2.331   0.149   4.637  0.6996 -3.1255 -1.7119
 4199WAT     H213117   2.351   0.260   4.535 -0.5885  0.7629  1.9937
 4200WAT      O13118   1.236   3.815   2.997  0.1727  0.2719  0.0016
 4200WAT     H113119   1.251   3.797   3.090  1.9950 -0.6980 -0.4337
 4200WAT     H213120   1.268   3.904   2.984  0.0739  0.3461  0.2596
 4201WAT      O13121   2.391   4.586   1.662  0.1363 -0.0885 -0.2142
 4201WAT     H113122   2.320   4.525   1.641  1.7684 -2.2268  0.1385
 4201WAT     H213123   2.452   4.577   1.589  1.1882 -0.1571  0.6470
 4202WAT      O13124   2.496   4.677   1.906  0.4192 -0.0145 -0.6262
 4202WAT     H113125   2.461   4.766   1.912  1.1240  0.3796 -1.8589
 4202WAT     H213126   2.470   4.647   1.819  1.0763 -0.6121 -0.6244
 4203WAT      O13127   7.220   0.385   2.431  0.1925 -0.1033 -0.4791
 4203WAT     H113128   7.166   0.392   2.511 -2.9038  1.5991 -2.5279
 4203WAT     H213129   7.178   0.315   2.381  1.7497 -0.7471 -0.9484
 4204WAT      O13130   3.264   4.079   2.686  0.1849 -0.1878 -0.3224
 4204WAT     H113131   3.309   4.104   2.606  0.6984  0.3495  0.1241
 4204WAT     H213132   3.331   4.039   2.741 -0.3639 -1.4102 -0.5173
 4205WAT      O13133   1.873   3.723   1.502  0.3271 -0.0213  0.5476
 4205WAT     H113134   1.913   3.636   1.510  0.3310 -0.1717 -0.8179
 4205WAT     H213135   1.896   3.768   1.584  3.3292 -0.1019 -0.1450
 4206WAT      O13136   1.482   3.300   0.477 -0.5355 -0.2590  0.1304
 4206WAT     H113137   1.533   3.380   0.485  0.8037 -1.0008 -0.5860
 4206WAT     H213138   1.547   3.231   0.463 -1.7253 -1.2400 -0.8882
 4207WAT      O13139   2.953   3.315   0.776  0.0350 -0.5816 -0.1903
 4207WAT     H113140   3.034   3.270   0.799  0.3811 -0.4691 -1.1753
 4207WAT     H213141   2.885   3.247   0.783  0.3200 -0.8587 -0.1118
 4208WAT      O13142   4.859   5.261   2.000 -0.1780 -0.1956 -0.2989
 4208WAT     H113143   4.922   5.306   2.056 -1.1648  0.5132  0.2783
 4208WAT     H213144   4.828   5.188   2.055  0.7622 -1.0861 -0.9067
 4209WAT      O13145   0.743   5.768   2.619 -0.2656 -0.1575 -0.7761
 4209WAT     H113146   0.729   5.724   2.703 -0.8226 -2.8965 -2.1538
 4209WAT     H213147   0.836   5.789   2.618  0.3106 -2.4184 -0.4169
 4210WAT      O13148   0.442   4.322   2.947 -0.2187  0.0228 -0.5609
 4210WAT     H113149   0.357   4.363   2.935  0.0471  0.7673  0.0107
 4210WAT     H213150   0.459   4.330   3.041  0.5277 -0.0132 -0.6858
 4211WAT      O13151   2.940   3.735   4.357 -0.3027 -0.1233  0.1483
 4211WAT     H113152   2.902   3.682   4.287  0.7632 -0.7859  0.0474
 4211WAT     H213153   2.886   3.814   4.359  0.2310  0.3667 -2.0986
 4212WAT      O13154   3.633   4.926   2.698  0.1971  0.6310 -0.0360
 4212WAT     H113155   3.723   4.957   2.710  1.2677 -2.2106  0.0378
 4212WAT     H213156   3.639   4.863   2.626 -1.4288 -0.6918  0.9173
 4213WAT      O13157   1.534   3.158   2.628  0.6926  0.0811  0.3145
 4213WAT     H113158   1.614   3.126   2.587 -0.0213 -1.8722  0.3662
 4213WAT     H213159   1.463   3.118   2.578 -0.2647  1.2807  0.6633
 4214WAT      O13160   2.960   4.619   3.459 -0.0799  0.2859  0.0823
 4214WAT     H113161   2.890   4.571   3.503 -0.3861  3.0434  3.0018
 4214WAT     H213162   2.918   4.658   3.382 -1.0162 -0.3072  0.2841
 4215WAT      O13163   3.388   0.762   0.707 -0.6184  0.6545 -0.0670
 4215WAT     H113164   3.360   0.832   0.649 -0.2577  1.3411  0.5639
 4215WAT     H213165   3.307   0.722   0.738 -0.8269 -0.8988 -2.3732
 4216WAT      O13166   1.403   5.193   4.189 -0.1555 -0.1105 -0.1031
 4216WAT     H113167   1.453   5.218   4.267  0.7428  2.1837 -1.3117
 4216WAT     H213168   1.443   5.244   4.119 -1.9543 -0.9264 -1.7878
 4217WAT      O13169   0.068   3.302   5.951 -0.3119 -0.4959  0.0790
 4217WAT     H113170   0.104   3.389   5.966 -0.3343 -0.3037 -0.9372
 4217WAT     H213171   0.098   3.250   6.026  1.3048 -0.1053 -0.2697
 4218WAT      O13172   1.384   4.640   2.643 -0.0118  0.5180 -0.0039
 4218WAT     H113173   1.365   4.617   2.552 -1.1925 -0.1362  0.3891
 4218WAT     H213174   1.397   4.735   2.641 -3.0723  1.0356 -0.4186
 4219WAT      O13175   2.933   4.160   1.067  0.5460 -0.2092  0.0057
 4219WAT     H113176   2.869   4.106   1.021 -0.4847 -0.0906  1.2479
 4219WAT     H213177   2.923   4.135   1.159  2.1584 -0.0403  0.2564
 4220WAT      O13178   1.568   4.929   4.560 -0.4546  0.1069  0.4933
 4220WAT     H113179   1.539   5.011   4.521 -0.2620  1.0467  2.2325
 4220WAT     H213180   1.663   4.927   4.543 -0.3182  0.6642  1.1319
 4221WAT      O13181   2.786   4.247   2.912 -0.2401 -0.4926 -0.1169
 4221WAT     H113182   2.714   4.304   2.938  1.8087  1.8760  0.8107
 4221WAT     H213183   2.788   4.252   2.817  0.1043  1.3774 -0.0486
 4222WAT      O13184   3.640   5.329   1.932 -0.6548  0.0038 -0.2409
 4222WAT     H113185   3.591   5.389   1.988 -0.8495  0.4592 -0.8860
 4222WAT     H213186   3.574   5.269   1.897 -0.6472  0.1750 -0.5522
 4223WAT      O13187   2.205   4.777   1.753 -0.8733 -0.1991  0.0205
 4223WAT     H113188   2.269   4.716   1.717  0.0052  0.2102  0.8368
 4223WAT     H213189   2.147   4.724   1.807 -1.0579 -0.5361 -0.5103
 4224WAT      O13190   3.944   3.191   0.225  0.3600 -0.1604  0.3352
 4224WAT     H113191   3.871   3.215   0.167 -0.2969 -0.6629  0.9421
 4224WAT     H213192   3.994   3.127   0.175 -1.2239 -1.9730  0.9862
 4225WAT      O13193   2.240   2.137   0.227  0.3636 -0.3431  0.0389
 4225WAT     H113194   2.201   2.063   0.273  1.5741 -0.5584  0.7612
 4225WAT     H213195   2.233   2.114   0.134 -2.7547  0.4122 -0.0410
 4226WAT      O13196   2.467   5.031   2.491  0.6620 -0.0125  0.0215
 4226WAT     H113197   2.444   5.038   2.583  0.5761  1.1518 -0.0774
 4226WAT     H213198   2.390   5.061   2.444  1.4359  1.4466 -0.3693
 4227WAT      O13199   1.960   3.666   2.053 -0.3938  0.0654 -0.3660
 4227WAT     H113200   1.878   3.630   2.088  0.1696 -0.2104  0.7097
 4227WAT     H213201   2.022   3.593   2.056  0.5216  0.8586  1.0033
 4228WAT      O13202   2.355   3.837   2.994 -0.0376  0.2914 -0.4415
 4228WAT     H113203   2.335   3.745   2.976  1.1056  0.3832 -2.6337
 4228WAT     H213204   2.439   3.835   3.040  0.0654  0.2263 -0.6303
 4229WAT      O13205   2.798   3.767   2.507 -0.4142 -0.2380  0.6096
 4229WAT     H113206   2.781   3.714   2.429 -0.8663 -1.4539  1.5056
 4229WAT     H213207   2.873   3.821   2.483 -1.8246  0.9750 -1.3986
 4230WAT      O13208   3.253   4.200   1.598  0.1115 -0.0834  0.3596
 4230WAT     H113209   3.285   4.282   1.636  0.8814  0.5981 -1.6187
 4230WAT     H213210   3.332   4.148   1.584 -0.2299 -0.6076  0.3924
 4231WAT      O13211   2.654   4.281   2.283  0.2649  0.2228  0.3418
 4231WAT     H113212   2.627   4.353   2.225  0.0327 -0.8016 -0.8525
 4231WAT     H213213   2.749   4.292   2.292  0.2871  0.4660 -0.1334
 4232WAT      O13214   1.838   4.868   2.414  0.1827 -0.0053  0.2049
 4232WAT     H113215   1.921   4.821   2.417  0.0575 -0.2119  0.5355
 4232WAT     H213216   1.858   4.949   2.367  1.4890  1.6777  3.3217
 4233WAT      O13217   1.882   3.871   0.137  0.4985 -0.1102  0.3062
 4233WAT     H113218   1.807   3.895   0.082 -0.0718 -1.0482  0.6545
 4233WAT     H213219   1.851   3.882   0.227  0.1728 -2.1536  0.4887
 4234WAT      O13220   5.430   3.338   2.037 -0.6049 -0.1716 -0.7217
 4234WAT     H113221   5.488   3.412   2.023  0.0659 -0.9580 -2.3541
 4234WAT     H213222   5.353   3.357   1.982 -0.9705 -0.1142 -0.1939
 4235WAT      O13223   3.926   5.369   1.842 -0.0406  0.3978 -0.1105
 4235WAT     H113224   3.972   5.286   1.857  0.2252  0.6265  0.3392
 4235WAT     H213225   3.834   5.350   1.862  0.2388  0.5868  1.4137
 4236WAT      O13226   1.844   3.170   1.797  0.3590 -0.1692  0.1577
 4236WAT     H113227   1.841   3.127   1.712  0.4222  0.5655 -0.2286
 4236WAT     H213228   1.928   3.144   1.835  0.1228 -0.8803  0.2098
 4237WAT      O13229   2.295   5.898   2.639  0.3380  0.5447  0.3686
 4237WAT     H113230   2.240   5.932   2.569  0.5820  1.1881  0.4803
 4237WAT     H213231   2.368   5.856   2.594 -1.4815 -2.6008  0.1405
 4238WAT      O13232   2.807   4.381   0.971  0.4425 -0.2610 -0.0466
 4238WAT     H113233   2.864   4.306   0.983  0.7943  0.0982  0.6143
 4238WAT     H213234   2.850   4.452   1.020  0.5660  0.6050 -1.3560
 4239WAT      O13235   0.365   5.616   2.470 -0.3296 -0.2319 -0.1311
 4239WAT     H113236   0.280   5.660   2.465 -0.2690 -0.1329 -0.2707
 4239WAT     H213237   0.381   5.606   2.564  0.3345  1.3447 -0.0420
 4240WAT      O13238   2.400   5.746   0.296 -0.0111 -0.2144 -0.6217
 4240WAT     H113239   2.348   5.788   0.227  1.9238  0.8331 -1.5390
 4240WAT     H213240   2.416   5.816   0.359  0.4040 -0.4820 -0.4286
 4241WAT      O13241   1.400   2.704   3.452 -0.2735  0.3391 -0.0835
 4241WAT     H113242   1.464   2.634   3.462  0.2197  0.7571 -0.3081
 4241WAT     H213243   1.381   2.707   3.358  2.0254  2.5259 -0.5714
 4242WAT      O13244   2.582   4.397   1.119  0.8813  0.2034  0.3107
 4242WAT     H113245   2.655   4.380   1.059  0.8220 -2.2883  0.8715
 4242WAT     H213246   2.624   4.419   1.202  1.0155 -0.8938  0.5432
 4243WAT      O13247   2.051   5.473   5.827 -0.1248 -0.3420  0.1668
 4243WAT     H113248   2.050   5.380   5.805 -0.2050 -0.2162 -0.3581
 4243WAT     H213249   2.055   5.518   5.743 -0.1489  0.1325  0.4169
 4244WAT      O13250   4.852   4.257   2.875  0.0935  0.2053 -0.3717
 4244WAT     H113251   4.916   4.328   2.865  0.7994 -0.3524  0.1157
 4244WAT     H213252   4.823   4.264   2.966  1.1907 -0.9638  0.0918
 4245WAT      O13253   1.102   4.308   2.050  0.2261  0.2007 -0.0161
 4245WAT     H113254   1.138   4.224   2.022  0.1917  0.5606 -1.1752
 4245WAT     H213255   1.178   4.365   2.057  0.5422 -0.3987  2.7609
 4246WAT      O13256   3.621   3.699   2.510  0.0748  0.2293 -0.1051
 4246WAT     H113257   3.586   3.639   2.576  0.6278  0.9802  0.8945
 4246WAT     H213258   3.690   3.748   2.555 -0.9318  2.2283 -0.6234
 4247WAT      O13259   4.889   4.697   0.815  0.1834 -0.3113 -0.0908
 4247WAT     H113260   4.917   4.704   0.724  0.2560  0.5280 -0.0120
 4247WAT     H213261   4.968   4.671   0.863  0.0259 -1.2782 -0.3255
 4248WAT      O13262   3.675   4.342   0.839 -0.0128 -0.3143 -0.1404
 4248WAT     H113263   3.706   4.340   0.929  1.2282 -0.5064 -0.5486
 4248WAT     H213264   3.615   4.416   0.835  0.0981 -0.1680  0.7869
 4249WAT      O13265   2.978   3.918   2.936  0.3036 -0.5754  0.6780
 4249WAT     H113266   3.023   3.833   2.933  0.4853 -0.4654  0.2548
 4249WAT     H213267   3.047   3.981   2.957  0.7593 -0.1415 -1.8065
 4250WAT      O13268   2.977   4.255   3.550  0.4362 -0.0969 -0.3924
 4250WAT     H113269   3.041   4.183   3.549  1.1228  0.4997 -0.5614
 4250WAT     H213270   2.924   4.241   3.472  0.2676 -0.6722 -0.1822
 4251WAT      O13271   3.596   4.902   4.016 -0.6678 -0.1746 -0.5295
 4251WAT     H113272   3.675   4.936   3.974  0.4609 -0.1880  1.4451
 4251WAT     H213273   3.589   4.812   3.985  0.3788 -0.3164 -0.3970
 4252WAT      O13274   1.999   2.503   3.148 -0.4646 -0.1882 -0.1472
 4252WAT     H113275   1.965   2.574   3.093 -0.7478 -0.7456 -0.7095
 4252WAT     H213276   1.943   2.428   3.127 -0.4355 -0.4668  0.7552
 4253WAT      O13277   4.607   4.898   2.510  0.0468  0.4044  0.3351
 4253WAT     H113278   4.655   4.976   2.481  1.4814 -0.3322  0.6597
 4253WAT     H213279   4.609   4.902   2.605 -0.8783  0.5396  0.3653
 4254WAT      O13280   2.793   2.006   5.494  0.2756 -0.6329  0.0803
 4254WAT     H113281   2.879   2.023   5.532  0.1443  1.0658 -0.3010
 4254WAT     H213282   2.761   2.092   5.467 -1.8700 -1.1168  0.8602
 4255WAT      O13283   2.886   4.041   2.281  0.3294  0.0853  0.3502
 4255WAT     H113284   2.869   3.962   2.229 -0.8437  0.5741 -0.0488
 4255WAT     H213285   2.918   4.008   2.365  0.4288 -0.7951 -0.0235
 4256WAT      O13286   1.570   2.495   3.514 -0.0971 -0.7462  0.1263
 4256WAT     H113287   1.648   2.485   3.569  0.8630 -0.3217 -1.1035
 4256WAT     H213288   1.513   2.423   3.539  0.7347 -1.1228  0.9900
 4257WAT      O13289   2.719   2.394   1.019  0.4083  0.5668 -0.1255
 4257WAT     H113290   2.727   2.334   0.946 -1.0130  0.9468 -0.6309
 4257WAT     H213291   2.638   2.368   1.063  0.1933  1.5862  0.1178
 4258WAT      O13292   3.811   2.965   1.348  0.4932  0.1729  0.1109
 4258WAT     H113293   3.745   2.896   1.357  1.9698 -1.1469  1.5033
 4258WAT     H213294   3.765   3.046   1.371 -1.4066 -0.1869 -2.0005
 4259WAT      O13295   4.349   4.262   0.788  0.4842 -0.2577  0.4590
 4259WAT     H113296   4.326   4.170   0.771  0.8165 -0.1410 -0.7418
 4259WAT     H213297   4.416   4.282   0.722 -0.2838  1.1217  0.0585
 4260WAT      O13298   2.576   2.253   2.426  0.8023 -0.1729  0.1307
 4260WAT     H113299   2.666   2.244   2.396  1.1418  1.2043  0.6583
 4260WAT     H213300   2.526   2.192   2.372  1.7850  0.2822 -1.3439
 4261WAT      O13301   1.576   4.411   3.499  0.1348 -0.3202  0.0992
 4261WAT     H113302   1.619   4.437   3.580 -0.8321  0.9187  0.2488
 4261WAT     H213303   1.552   4.494   3.457 -0.2376 -0.9537 -0.9931
 4262WAT      O13304   5.279   4.527   3.908 -0.1509 -0.2321 -0.4808
 4262WAT     H113305   5.202   4.562   3.862  0.5513  0.6410 -1.0144
 4262WAT     H213306   5.317   4.464   3.847 -0.3103 -0.5149 -0.2957
 4263WAT      O13307   5.947   5.088   4.007 -0.1187 -0.3186  0.2793
 4263WAT     H113308   5.853   5.086   4.027  0.3808 -0.3269  2.8678
 4263WAT     H213309   5.961   5.010   3.954 -1.3960 -0.9060  0.7631
 4264WAT      O13310   3.052   1.948   3.883  0.4537 -0.2183  0.0228
 4264WAT     H113311   3.098   1.879   3.930  0.7544 -0.8798 -1.1986
 4264WAT     H213312   2.962   1.915   3.873 -0.1026  0.6994  1.6542
 4265WAT      O13313   3.189   6.058   2.192  0.3180 -0.4367  0.3148
 4265WAT     H113314   3.201   6.052   2.097 -0.6096  0.1010  0.1529
 4265WAT     H213315   3.095   6.069   2.204  0.4400 -0.3686  1.2940
 4266WAT      O13316   3.833   0.933   2.015 -0.3547 -0.3010  0.2374
 4266WAT     H113317   3.830   0.839   2.033 -0.4195 -0.1638  0.9873
 4266WAT     H213318   3.801   0.973   2.095  2.3407  0.4777  1.0498
 4267WAT      O13319   5.589   4.212   1.150  0.3548 -0.3774 -0.6475
 4267WAT     H113320   5.608   4.163   1.231 -1.9585  2.5615  1.9031
 4267WAT     H213321   5.503   4.180   1.123  0.9475 -1.0537 -1.8048
 4268WAT      O13322   1.294   2.418   0.860  0.3563 -0.4928  0.4843
 4268WAT     H113323   1.221   2.467   0.821  1.0344 -1.0036 -1.5530
 4268WAT     H213324   1.254   2.369   0.933 -0.5254  2.2493  1.9921
 4269WAT      O13325   2.790   3.656   2.762  0.1145  0.0792 -0.1366
 4269WAT     H113326   2.803   3.711   2.684  1.8111  0.0236  0.0712
 4269WAT     H213327   2.857   3.686   2.823 -0.6479 -0.4623  0.9897
 4270WAT      O13328   2.897   4.443   2.333 -0.2093  0.0673  0.6511
 4270WAT     H113329   2.909   4.461   2.426 -1.0158  0.6938  0.6420
 4270WAT     H213330   2.896   4.529   2.291  0.8719 -0.2379 -0.0420
 4271WAT      O13331   2.278   4.819   2.663  0.7285 -0.1407  0.3369
 4271WAT     H113332   2.320   4.898   2.697  2.2577 -0.2047 -1.2411
 4271WAT     H213333   2.251   4.770   2.741 -0.3048  1.9049  1.3580
 4272WAT      O13334   3.633   4.708   2.885 -0.1251  0.1903  0.5674
 4272WAT     H113335   3.693   4.777   2.911  1.3073 -0.9147  0.3370
 4272WAT     H213336   3.605   4.732   2.797  1.6905 -0.3245 -0.2006
 4273WAT      O13337   3.224   2.827   2.624  0.6800 -0.2582  0.2933
 4273WAT     H113338   3.303   2.881   2.635  0.4005 -0.0941  1.8035
 4273WAT     H213339   3.168   2.854   2.697  1.1581 -3.6714  2.1170
 4274WAT      O13340   2.507   3.142   0.935 -0.1093  0.0446 -0.0303
 4274WAT     H113341   2.493   3.236   0.942 -0.2370  0.0403 -0.1962
 4274WAT     H213342   2.493   3.123   0.842 -0.4989 -0.2004  0.0753
 4275WAT      O13343   4.335   2.085   2.118 -0.0657  0.2619 -0.6408
 4275WAT     H113344   4.283   2.014   2.081 -0.9304  1.8320 -2.6081
 4275WAT     H213345   4.272   2.141   2.161  0.2765  1.0649 -1.1699
 4276WAT      O13346   3.506   2.960   2.066 -0.1894  0.2970  0.0104
 4276WAT     H113347   3.544   2.878   2.096 -1.1786 -0.1437  0.1174
 4276WAT     H213348   3.414   2.939   2.050 -0.5787  1.5014  0.5185
 4277WAT      O13349   0.782   5.213   2.163 -0.4163 -0.3114  0.4528
 4277WAT     H113350   0.754   5.234   2.252  0.4782  1.2237  0.3977
 4277WAT     H213351   0.873   5.184   2.172 -0.7510 -1.5198  0.1771
 4278WAT      O13352   5.445   3.741   1.100 -0.2667  0.1662  0.1243
 4278WAT     H113353   5.390   3.759   1.024  2.4812  2.8375 -1.4573
 4278WAT     H213354   5.412   3.799   1.168 -0.0701  1.0028 -0.4807
 4279WAT      O13355   1.717   4.052   1.755 -0.3151 -0.5118  0.0473
 4279WAT     H113356   1.627   4.071   1.779 -0.1242 -0.1637  0.4974
 4279WAT     H213357   1.746   3.989   1.821  0.2532  0.5465  0.8287
 4280WAT      O13358   2.974   5.183   2.014 -0.1237  0.2724  0.2089
 4280WAT     H113359   2.974   5.261   2.070 -0.5056  1.1925 -1.0269
 4280WAT     H213360   2.912   5.124   2.057 -0.0091  0.7409  1.0420
 4281WAT      O13361   3.443   4.317   1.334  0.3878 -1.1751  0.1589
 4281WAT     H113362   3.490   4.361   1.405  1.1757 -1.5077 -0.1469
 4281WAT     H213363   3.446   4.224   1.357  0.8350 -1.3083 -0.4102
 4282WAT      O13364   2.013   5.521   2.017  0.1022  0.0918  0.2883
 4282WAT     H113365   1.918   5.521   2.017  0.1009  0.3741  0.1335
 4282WAT     H213366   2.037   5.608   1.983  0.3908 -0.9459 -2.4131
 4283WAT      O13367   2.299   5.517   4.901 -0.1250  0.2780  0.2724
 4283WAT     H113368   2.368   5.575   4.932 -1.9590  1.7572  1.8726
 4283WAT     H213369   2.301   5.443   4.962  2.8719 -2.0593 -2.3577
 4284WAT      O13370   3.583   0.110   3.001 -0.3617  0.1428 -0.9150
 4284WAT     H113371   3.676   0.133   2.992 -0.4948  1.5499  0.7830
 4284WAT     H213372   3.582   0.044   3.071 -0.7450  1.4772  0.4032
 4285WAT      O13373   0.905   5.902   4.025  0.2184 -0.0077 -0.5081
 4285WAT     H113374   0.894   5.824   4.079  2.5000  0.9048  1.4534
 4285WAT     H213375   0.966   5.874   3.956  0.2788 -0.1940 -0.3801
 4286WAT      O13376   3.026   4.440   0.483  0.4079  0.5088  0.1462
 4286WAT     H113377   3.015   4.457   0.577 -0.3754 -0.6092  0.2775
 4286WAT     H213378   2.970   4.364   0.466  0.1978  0.9675 -1.3259
 4287WAT      O13379   2.510   3.926   5.055  0.1754  0.0922  0.2555
 4287WAT     H113380   2.485   3.951   5.144 -0.3601 -0.0015  0.1323
 4287WAT     H213381   2.592   3.878   5.066  0.8582  1.2770  0.5676
 4288WAT      O13382   0.988   5.621   3.637  0.2480  0.6493 -0.1506
 4288WAT     H113383   0.978   5.533   3.601 -1.1390  0.3804  0.8364
 4288WAT     H213384   0.910   5.668   3.607  1.2661  1.7642 -1.1899
 4289WAT      O13385   3.889   5.584   5.941  0.0625 -0.2279  0.0451
 4289WAT     H113386   3.806   5.558   5.980 -0.2187  1.5524  0.7358
 4289WAT     H213387   3.940   5.503   5.937 -0.6787 -0.8756  2.1835
 4290WAT      O13388   3.812   5.475   0.870 -0.2768 -0.0810  0.1533
 4290WAT     H113389   3.745   5.418   0.909 -0.5354 -0.4178 -0.7369
 4290WAT     H213390   3.863   5.416   0.814 -1.5271  0.7798 -2.0400
 4291WAT      O13391   1.224   3.492   0.187  0.0111  0.6579 -0.0457
 4291WAT     H113392   1.217   3.540   0.270 -1.5957 -0.6288  0.6262
 4291WAT     H213393   1.268   3.410   0.211 -1.0153  0.0106 -0.3103
 4292WAT      O13394   2.296   4.075   3.641  0.1055  0.7154 -0.6931
 4292WAT     H113395   2.336   4.011   3.700  0.5280  1.4645 -0.1563
 4292WAT     H213396   2.339   4.157   3.662 -1.2102  1.4146 -0.5916
 4293WAT      O13397   3.820   4.470   0.338  0.3646  0.1642 -0.1672
 4293WAT     H113398   3.823   4.443   0.430 -0.9520 -0.6461 -0.3381
 4293WAT     H213399   3.766   4.549   0.338  1.3788  0.8684 -0.1018
 4294WAT      O13400   3.668   3.788   5.090  0.1587  0.4688 -0.4684
 4294WAT     H113401   3.670   3.867   5.144 -0.3521  0.1572  0.0175
 4294WAT     H213402   3.609   3.811   5.018 -0.7050  0.2483  0.1453
 4295WAT      O13403   3.077   3.102   0.908  0.1612  0.3155 -0.4384
 4295WAT     H113404   3.111   3.030   0.856  0.6016  0.9151 -1.0007
 4295WAT     H213405   3.070   3.066   0.997 -0.6274 -0.7206 -0.9051
 4296WAT      O13406   3.213   0.474   0.890  0.3430  0.2791  0.0835
 4296WAT     H113407   3.165   0.548   0.854  0.3272  0.2024 -0.0518
 4296WAT     H213408   3.223   0.414   0.816 -0.9526 -0.5413  0.5483
 4297WAT      O13409   3.195   4.806   5.228 -0.1445 -0.4586  0.0387
 4297WAT     H113410   3.249   4.818   5.150 -1.0298  0.5830 -0.4427
 4297WAT     H213411   3.213   4.883   5.282 -1.4105  0.1118 -0.3109
 4298WAT      O13412   2.284   5.011   4.560 -0.3339 -0.1626 -0.8975
 4298WAT     H113413   2.290   5.074   4.632  0.0785 -0.7427 -0.4207
 4298WAT     H213414   2.375   4.995   4.536 -0.4897  0.8482 -2.2849
 4299WAT      O13415   2.241   5.004   0.058  0.0026  0.3755 -0.1201
 4299WAT     H113416   2.258   4.931  -0.001  1.7836  0.8051 -0.1925
 4299WAT     H213417   2.145   5.005   0.068 -0.2828 -0.2634 -2.2507
 4300WAT      O13418   2.769   4.669   4.693 -0.4422 -0.1105  0.2008
 4300WAT     H113419   2.759   4.763   4.710 -2.3303 -0.2220 -0.1219
 4300WAT     H213420   2.773   4.663   4.598 -1.6451 -0.4439  0.1579
 4301WAT      O13421   3.277   5.079   1.434  0.0590  0.0342 -0.1436
 4301WAT     H113422   3.341   5.061   1.502  0.0853 -0.2333 -0.2383
 4301WAT     H213423   3.201   5.113   1.481  0.2694  0.3572 -0.0310
 4302WAT      O13424   2.262   4.287   4.990  0.1903  0.3520 -0.0160
 4302WAT     H113425   2.302   4.369   4.960  1.0782 -0.2917 -0.6680
 4302WAT     H213426   2.335   4.225   4.994 -0.8620 -1.2315 -2.4906
 4303WAT      O13427   4.850   4.731   0.254  0.0631 -0.4583 -0.0584
 4303WAT     H113428   4.862   4.815   0.299  2.2056 -1.6562  1.8069
 4303WAT     H213429   4.755   4.719   0.251 -0.2798  1.8714 -0.1016
 4304WAT      O13430   2.689   2.036   0.287 -0.2423  0.2497  0.7891
 4304WAT     H113431   2.612   1.979   0.276 -1.2816  1.6461  0.5043
 4304WAT     H213432   2.692   2.054   0.381  0.3166 -0.5495  0.9354
 4305WAT      O13433   2.015   4.315   5.144 -0.4305  0.0976  0.4690
 4305WAT     H113434   2.079   4.296   5.076 -1.3327  2.1657 -1.0560
 4305WAT     H213435   2.020   4.410   5.155 -0.8599 -0.0934  2.7796
 4306WAT      O13436   1.076   4.886   1.861  0.3013 -0.8963 -0.4959
 4306WAT     H113437   1.064   4.980   1.875 -0.4962 -1.1567  0.7054
 4306WAT     H213438   1.018   4.845   1.925  2.4631 -2.2052  0.7587
 4307WAT      O13439   3.795   3.407   0.647  0.0350  0.5609 -0.1194
 4307WAT     H113440   3.761   3.330   0.601 -0.8755  0.8770 -0.0060
 4307WAT     H213441   3.751   3.481   0.605 -0.3934  0.8934  0.8816
 4308WAT      O13442   0.013   2.838   0.975  0.3468 -0.1994 -0.3335
 4308WAT     H113443  -0.048   2.899   1.017 -0.4771 -1.3173  0.1610
 4308WAT     H213444  -0.037   2.799   0.903  1.0785  0.1817 -1.0568
 4309WAT      O13445   0.422   0.375   2.854  0.1170 -0.0730 -0.8780
 4309WAT     H113446   0.346   0.432   2.840  0.7637  1.2122  0.5159
 4309WAT     H213447   0.474   0.385   2.774  0.6019  1.9875 -0.3748
 4310WAT      O13448   3.550   5.254   1.551 -0.0306  0.6968  0.0827
 4310WAT     H113449   3.482   5.309   1.512 -0.0216  0.3179 -0.4746
 4310WAT     H213450   3.514   5.227   1.635 -0.3588  0.9082  0.0111
 4311WAT      O13451   2.308   4.404   1.175  0.2464  0.1081  0.1052
 4311WAT     H113452   2.279   4.460   1.103 -0.6917 -0.7281 -0.1867
 4311WAT     H213453   2.404   4.409   1.172  0.2473 -0.2971 -1.5146
 4312WAT      O13454   2.033   3.873   5.894  0.0103  0.2092 -0.3160
 4312WAT     H113455   1.962   3.856   5.957  0.8023 -0.6856  0.3654
 4312WAT     H213456   2.011   3.957   5.855  0.5859  1.9183  2.7428
 4313WAT      O13457   3.571   3.795   0.349 -0.2331  0.8603  0.0187
 4313WAT     H113458   3.482   3.794   0.315 -0.7035  3.9356  0.9005
 4313WAT     H213459   3.618   3.854   0.291  1.2945 -0.6796 -0.3969
 4314WAT      O13460   3.398   5.040   0.317  0.0106  0.2288 -0.1496
 4314WAT     H113461   3.462   4.980   0.355 -0.3143  0.0941  0.1903
 4314WAT     H213462   3.349   5.074   0.392 -1.3397 -0.8389 -0.5003
 4315WAT      O13463   1.967   3.945   1.235  0.0830  0.1560  0.2213
 4315WAT     H113464   1.945   3.852   1.232  1.7289 -0.2482 -0.3690
 4315WAT     H213465   1.916   3.984   1.164 -0.7088 -0.2738  0.5509
 4316WAT      O13466   3.128   4.823   1.934 -0.0720  0.1972 -0.0836
 4316WAT     H113467   3.218   4.797   1.952  0.3053  1.2214 -0.4744
 4316WAT     H213468   3.113   4.898   1.991 -1.0499 -0.6274  0.7893
 4317WAT      O13469   2.125   1.668   5.622 -0.4856 -0.2048 -0.2705
 4317WAT     H113470   2.154   1.758   5.635 -1.4887  0.1730 -0.6054
 4317WAT     H213471   2.205   1.616   5.628  0.0033  0.6271  0.6770
 4318WAT      O13472   2.794   3.740   5.989 -0.1531  0.1221  0.0127
 4318WAT     H113473   2.886   3.728   5.965 -0.1581 -1.2003  0.5923
 4318WAT     H213474   2.750   3.661   5.958 -0.8097  0.0301  1.1230
 4319WAT      O13475   2.222   3.396   0.882 -0.4659  0.3095  0.7061
 4319WAT     H113476   2.234   3.336   0.808 -2.5251  0.0103  0.5581
 4319WAT     H213477   2.306   3.394   0.928  0.8040  0.3131 -1.4550
 4320WAT      O13478   3.155   5.121   1.706 -0.2813 -0.3395  0.2352
 4320WAT     H113479   3.061   5.134   1.721 -0.0774  1.0460  0.4192
 4320WAT     H213480   3.191   5.099   1.792 -0.3889 -0.6684  0.2007
 4321WAT      O13481   2.690   4.312   6.004  0.5634  0.0317 -0.1297
 4321WAT     H113482   2.650   4.290   6.088 -0.2800 -1.4513 -0.8814
 4321WAT     H213483   2.784   4.299   6.018  0.2747 -2.2772  0.0405
 4322WAT      O13484   2.515   1.332   2.143  0.2573 -0.2113  0.6972
 4322WAT     H113485   2.487   1.259   2.089  1.9099 -0.3065 -0.0635
 4322WAT     H213486   2.433   1.374   2.170 -0.6781 -1.7589  0.3728
 4323WAT      O13487   3.585   4.791   2.471  0.1833  0.3323 -0.4130
 4323WAT     H113488   3.649   4.731   2.433  2.1014  1.7081  0.5320
 4323WAT     H213489   3.538   4.827   2.395  1.2507  0.0947 -1.2012
 4324WAT      O13490   1.882   2.718   0.681 -0.3045 -0.1215 -0.4473
 4324WAT     H113491   1.893   2.764   0.764  0.4427  0.6309 -0.9434
 4324WAT     H213492   1.792   2.686   0.683 -0.1349 -0.5930  0.8856
 4325WAT      O13493   3.590   5.834   0.033  0.0424  0.6999 -0.2445
 4325WAT     H113494   3.620   5.743   0.039 -1.6846  0.1855  1.6528
 4325WAT     H213495   3.531   5.845   0.107 -0.9646  2.9591 -1.2835
 4326WAT      O13496   3.671   4.391   1.144  0.1486 -0.3085 -0.0206
 4326WAT     H113497   3.646   4.483   1.149  1.2749  0.0315 -0.3679
 4326WAT     H213498   3.605   4.345   1.197  1.3097  1.0384  2.7711
 4327WAT      O13499   2.256   3.407   1.651 -0.1518 -0.1262 -0.2076
 4327WAT     H113500   2.165   3.420   1.624 -0.4644 -1.2385  0.2511
 4327WAT     H213501   2.250   3.381   1.743  0.7049  0.6860  0.1011
 4328WAT      O13502   1.484   2.886   1.345 -0.2178  0.0698  0.1137
 4328WAT     H113503   1.530   2.939   1.279 -0.6129  1.5627  1.0112
 4328WAT     H213504   1.394   2.882   1.314 -0.3896  0.7184  0.5092
 4329WAT      O13505   1.705   4.523   4.689  0.2003 -0.0292  0.0754
 4329WAT     H113506   1.689   4.592   4.753 -2.2110 -0.1263 -0.3423
 4329WAT     H213507   1.767   4.561   4.627 -0.6537  1.5614  0.1631
 4330WAT      O13508   2.483   2.529   0.825  0.1771  0.0334  0.6807
 4330WAT     H113509   2.421   2.457   0.816 -0.3196  0.4321  0.8114
 4330WAT     H213510   2.486   2.546   0.919 -1.6828  1.8290  0.5013
 4331WAT      O13511   1.700   0.682   4.334 -0.6025 -0.1078 -0.1981
 4331WAT     H113512   1.716   0.724   4.418 -0.1421 -1.0620  0.2014
 4331WAT     H213513   1.641   0.609   4.354 -1.0440  0.0747 -0.8101
 4332WAT      O13514   4.067   4.183   0.931  0.0212 -0.8676 -0.2481
 4332WAT     H113515   4.109   4.269   0.936 -0.4633 -0.6333 -0.1304
 4332WAT     H213516   3.989   4.192   0.985  0.1420 -1.4863  0.0328
 4333WAT      O13517   2.306   3.667   5.088  0.4206 -0.7969  0.2563
 4333WAT     H113518   2.337   3.746   5.133  0.2711 -0.2600 -0.5512
 4333WAT     H213519   2.217   3.655   5.119 -0.2097  0.4398 -0.9768
 4334WAT      O13520   1.584   3.442   2.553  0.1401 -0.0276  0.1316
 4334WAT     H113521   1.655   3.506   2.560 -2.2504  2.9140  0.0390
 4334WAT     H213522   1.546   3.439   2.640 -1.2083  0.5548 -0.4038
 4335WAT      O13523   4.002   5.343   5.979 -0.6273 -0.7261 -0.3792
 4335WAT     H113524   3.944   5.267   5.967  0.0541 -1.3035 -0.0961
 4335WAT     H213525   4.032   5.336   6.069  1.5552 -1.6539 -1.1171
 4336WAT      O13526   3.522   4.150   0.999  0.0508 -0.5936  0.2540
 4336WAT     H113527   3.519   4.229   0.946 -0.2009  0.5528  1.9110
 4336WAT     H213528   3.459   4.091   0.956 -1.7161  1.0582  0.4155
 4337WAT      O13529   0.322   3.571   5.776 -0.0142 -0.4376 -0.2024
 4337WAT     H113530   0.256   3.583   5.844 -0.2535 -1.2906 -0.2779
 4337WAT     H213531   0.332   3.476   5.769 -0.7308 -0.4135 -2.0493
 4338WAT      O13532   3.087   5.273   0.593  0.0358 -0.1145  0.5696
 4338WAT     H113533   3.093   5.366   0.614 -0.2504  0.3905 -1.3938
 4338WAT     H213534   3.016   5.268   0.529 -0.7064 -1.8567  1.4715
 4339WAT      O13535   3.423   5.844   5.324  0.2340  0.4816 -0.1413
 4339WAT     H113536   3.509   5.869   5.290  0.8222 -1.4043 -0.1309
 4339WAT     H213537   3.419   5.884   5.411  2.0858 -1.2453  0.8150
 4340WAT      O13538   2.637   2.176   1.400 -0.3543 -0.2724 -0.3053
 4340WAT     H113539   2.717   2.141   1.361 -0.6383 -0.6127 -0.5913
 4340WAT     H213540   2.580   2.099   1.411 -0.7479  0.0107 -0.3673
 4341WAT      O13541   2.199   3.803   0.760  0.1250  0.0274  0.5951
 4341WAT     H113542   2.228   3.763   0.678  0.5115 -0.3816  0.9243
 4341WAT     H213543   2.252   3.882   0.768 -0.8535  0.7905 -0.2085
 4342WAT      O13544   3.377   3.632   1.181 -0.1986  0.0993  0.1884
 4342WAT     H113545   3.421   3.717   1.177  1.6899 -0.7965  0.9812
 4342WAT     H213546   3.300   3.647   1.235  0.0081  1.3330  0.1675
 4343WAT      O13547   2.061   3.619   0.890 -0.1367  0.2573  0.8572
 4343WAT     H113548   2.130   3.676   0.856 -0.0271 -1.1415 -1.4429
 4343WAT     H213549   2.106   3.536   0.909 -1.0991 -0.6098 -0.5038
 4344WAT      O13550   2.229   5.932   4.844 -0.6040 -0.5969 -0.4584
 4344WAT     H113551   2.290   6.004   4.830 -1.0740  0.0768  0.8166
 4344WAT     H213552   2.208   5.901   4.756  1.0607 -0.4254 -0.9476
 4345WAT      O13553   2.794   2.665   5.354  0.3738 -0.1252  0.2410
 4345WAT     H113554   2.851   2.737   5.379  1.1079 -0.4716 -0.3909
 4345WAT     H213555   2.729   2.660   5.424  0.0819  1.3826  0.1235
 4346WAT      O13556   1.747   3.140   2.059  0.0102 -0.2983  0.4687
 4346WAT     H113557   1.653   3.142   2.076 -0.1353  0.6488 -0.3745
 4346WAT     H213558   1.755   3.139   1.964  0.8440  0.5570  0.5078
 4347WAT      O13559   2.782   4.292   0.455 -0.1500  0.0573  0.7356
 4347WAT     H113560   2.808   4.200   0.445 -1.0981 -0.2784  1.2227
 4347WAT     H213561   2.757   4.300   0.547 -0.3070  0.7518  0.6406
 4348WAT      O13562   3.917   3.814   1.404  0.5381  0.4484  0.0053
 4348WAT     H113563   3.910   3.783   1.314 -1.0016  1.4248 -0.2423
 4348WAT     H213564   3.915   3.909   1.397  0.5893  0.5464  1.0735
 4349WAT      O13565   3.135   2.710   5.609 -0.4931  0.6292 -0.5274
 4349WAT     H113566   3.211   2.758   5.641 -1.4333  2.2953 -0.6511
 4349WAT     H213567   3.159   2.684   5.520  0.8260 -1.0211  0.2601
 4350WAT      O13568   4.453   5.063   2.244 -0.4914  0.4362  0.1680
 4350WAT     H113569   4.466   5.158   2.244 -0.5604  0.4651  1.3708
 4350WAT     H213570   4.507   5.032   2.317 -0.9600 -0.3720  0.1851
 4351WAT      O13571   3.563   0.246   1.414  0.5940 -0.3047 -0.5952
 4351WAT     H113572   3.575   0.283   1.327 -1.4572 -0.5115 -1.0133
 4351WAT     H213573   3.475   0.209   1.413 -0.4353  1.7102  2.2865
 4352WAT      O13574   1.757   3.875   2.285 -0.0201 -0.0906 -0.3036
 4352WAT     H113575   1.794   3.893   2.199 -0.9317  1.2667 -0.4483
 4352WAT     H213576   1.808   3.930   2.345 -1.3318  1.3075 -0.4212
 4353WAT      O13577   2.892   3.475   0.983  0.0638  0.0660 -0.0379
 4353WAT     H113578   2.952   3.413   1.024  0.4545 -0.5571 -1.4678
 4353WAT     H213579   2.943   3.514   0.912 -0.9087  0.2464 -0.6635
 4354WAT      O13580   3.825   4.193   0.315  0.3819 -0.1626  0.4200
 4354WAT     H113581   3.831   4.288   0.322 -0.9410 -0.1126  1.3552
 4354WAT     H213582   3.774   4.167   0.392 -0.3140 -1.5091 -0.4538
 4355WAT      O13583   3.307   3.809   5.569 -0.2205  0.3120  0.3569
 4355WAT     H113584   3.249   3.742   5.605 -0.3572  0.2367  0.0063
 4355WAT     H213585   3.359   3.762   5.503  0.8542  0.1825  1.2660
 4356WAT      O13586   3.375   2.224   2.192 -0.2165 -0.0898  0.4768
 4356WAT     H113587   3.464   2.225   2.227 -0.5165  1.0137  1.2617
 4356WAT     H213588   3.373   2.147   2.135  0.9487 -0.6725  1.1815
 4357WAT      O13589   4.359   3.933   1.722  0.2040  0.1891 -0.2879
 4357WAT     H113590   4.429   3.937   1.786  1.2847 -0.1772 -1.4109
 4357WAT     H213591   4.283   3.902   1.771  0.2987  2.4126  1.3503
 4358WAT      O13592   6.680   3.961   0.642  0.1326 -0.6797  0.6740
 4358WAT     H113593   6.726   4.010   0.574 -0.3321 -0.1163  0.7566
 4358WAT     H213594   6.682   4.020   0.718 -0.2909 -0.8591  0.8239
 4359WAT      O13595   3.390   5.913   5.591  0.0369  0.2810  0.0107
 4359WAT     H113596   3.464   5.926   5.650  1.4627  1.9526 -1.9968
 4359WAT     H213597   3.314   5.945   5.640  1.2654  2.2486  0.7391
 4360WAT      O13598   2.235   5.601   4.631 -0.4180  0.1800 -0.4239
 4360WAT     H113599   2.253   5.558   4.714 -1.1188  0.3581 -0.1694
 4360WAT     H213600   2.279   5.686   4.637 -0.3965  0.1584 -0.2716
 4361WAT      O13601   2.885   5.667   5.980  0.2878  0.0722  0.2624
 4361WAT     H113602   2.807   5.683   6.033 -1.4391 -0.1001 -2.0538
 4361WAT     H213603   2.893   5.571   5.977  0.9223  0.0939  0.8910
 4362WAT      O13604   2.438   4.673   5.332 -0.1057  0.0798 -0.3575
 4362WAT     H113605   2.443   4.737   5.403  1.4758 -0.3123 -0.0930
 4362WAT     H213606   2.471   4.719   5.255  0.6760 -0.2831 -0.2488
 4363WAT      O13607   3.667   2.190   0.367  0.7180 -0.3246 -0.3205
 4363WAT     H113608   3.642   2.099   0.353  2.3457 -1.0864  1.3611
 4363WAT     H213609   3.743   2.204   0.310  0.0544  0.2111 -1.0921
 4364WAT      O13610   1.762   5.383   4.549 -0.4499 -0.0153 -0.1945
 4364WAT     H113611   1.749   5.407   4.641 -1.8470  1.1415 -0.6435
 4364WAT     H213612   1.849   5.344   4.546  0.4562  1.7343  1.2821
 4365WAT      O13613   2.476   0.647   4.877 -0.1467 -0.2471 -0.2291
 4365WAT     H113614   2.473   0.665   4.971  1.7675 -0.7121 -0.0368
 4365WAT     H213615   2.384   0.642   4.851 -0.7667 -1.4198  1.8832
 4366WAT      O13616   3.591   4.564   1.484  0.0527  0.1904 -0.0859
 4366WAT     H113617   3.682   4.586   1.466 -0.0124 -0.1721 -0.9110
 4366WAT     H213618   3.580   4.581   1.577  1.4284 -1.3890  0.4107
 4367WAT      O13619   3.523   5.074   4.264  0.0162  0.2505 -0.2478
 4367WAT     H113620   3.563   5.056   4.349 -0.8370 -0.4768  0.0145
 4367WAT     H213621   3.571   5.019   4.203 -0.9201 -1.0502  0.1518
 4368WAT      O13622   0.782   2.735   0.048 -0.7800 -0.0962  0.0844
 4368WAT     H113623   0.874   2.737   0.021 -0.1250 -2.7274  1.6944
 4368WAT     H213624   0.735   2.705  -0.030 -0.0891  0.0932 -0.4114
 4369WAT      O13625   4.629   4.466   0.711 -0.1064 -0.0064  0.0149
 4369WAT     H113626   4.664   4.447   0.798 -0.6620 -1.5141 -0.0506
 4369WAT     H213627   4.546   4.512   0.727  1.5162  3.0735  0.1756
 4370WAT      O13628   0.726   2.679   1.954  0.1361  0.1453 -0.2988
 4370WAT     H113629   0.668   2.756   1.950 -0.2217 -0.0826  0.4253
 4370WAT     H213630   0.795   2.705   2.015  0.0213 -0.1004 -0.0631
 4371WAT      O13631   3.301   3.997   0.044 -0.3246  0.6552  0.4717
 4371WAT     H113632   3.374   4.059   0.046  0.8603 -0.5804 -1.3852
 4371WAT     H213633   3.332   3.926  -0.012 -1.6229 -1.6191  2.4555
 4372WAT      O13634   2.970   5.089   1.151  0.4439 -0.3983  0.2145
 4372WAT     H113635   2.913   5.024   1.192 -0.2248  0.7626  1.2009
 4372WAT     H213636   3.058   5.052   1.158  0.1598 -0.8985  1.3837
 4373WAT      O13637   3.723   4.033   0.539 -0.5616 -0.3826 -0.1205
 4373WAT     H113638   3.647   4.022   0.595 -1.2637 -0.3716 -1.0488
 4373WAT     H213639   3.739   3.946   0.503 -0.3428 -0.3153 -0.1878
 4374WAT      O13640   2.898   2.882   0.100 -0.3654 -0.5657 -0.1487
 4374WAT     H113641   2.840   2.932   0.158 -1.5821 -1.3187 -0.6812
 4374WAT     H213642   2.880   2.790   0.122 -0.8999 -0.8654 -1.7497
 4375WAT      O13643   2.331   2.314   1.744  0.7984 -0.5301 -0.5477
 4375WAT     H113644   2.250   2.278   1.781 -0.5374  0.9148 -1.9546
 4375WAT     H213645   2.334   2.280   1.655  1.5323 -0.2134 -0.6542
 4376WAT      O13646   2.759   3.105   0.823  0.4256  0.2684  0.6077
 4376WAT     H113647   2.793   3.017   0.838  0.2509  0.1340  0.2404
 4376WAT     H213648   2.673   3.106   0.866 -0.4061 -0.3572 -0.9420
 4377WAT      O13649   1.438   3.717   0.626 -0.5711  0.2202  0.2439
 4377WAT     H113650   1.428   3.705   0.532  2.9114  3.2511 -0.7784
 4377WAT     H213651   1.497   3.647   0.654 -0.0834  0.4196 -0.2784
 4378WAT      O13652   1.640   2.621   1.116 -0.2922 -0.1961  0.3804
 4378WAT     H113653   1.545   2.606   1.114 -0.2314 -0.5558 -0.5964
 4378WAT     H213654   1.651   2.711   1.086 -0.3451 -0.0377  0.8375
 4379WAT      O13655   1.469   1.347   0.288 -0.6864 -0.2835  0.2650
 4379WAT     H113656   1.462   1.312   0.199  0.2941 -1.4421  0.6197
 4379WAT     H213657   1.507   1.276   0.339 -0.7797  0.5336  1.5191
 4380WAT      O13658   3.488   4.984   2.097  0.1736 -0.4233 -0.3671
 4380WAT     H113659   3.516   5.003   2.186  1.8723 -1.0703 -0.7247
 4380WAT     H213660   3.541   4.909   2.070 -0.9979 -0.8573 -1.5941
 4381WAT      O13661   2.129   3.739   1.695  0.6006  0.2426  0.1151
 4381WAT     H113662   2.128   3.657   1.743  0.4368  0.3356  0.2714
 4381WAT     H213663   2.202   3.731   1.634 -0.2039 -0.5386 -0.7685
 4382WAT      O13664   3.003   5.112   2.324 -0.8033 -0.0279  0.0366
 4382WAT     H113665   2.993   5.043   2.390 -1.9394  0.6849  0.6479
 4382WAT     H213666   2.916   5.119   2.283  0.0210 -0.8727 -2.0046
 4383WAT      O13667   1.551   3.518   4.987  0.3916 -0.1643  0.2673
 4383WAT     H113668   1.522   3.571   4.913  1.4327  2.7859  1.8003
 4383WAT     H213669   1.472   3.473   5.017 -0.8919  1.5501 -0.3696
 4384WAT      O13670   2.757   1.689   5.631 -0.4232 -0.3170 -0.6180
 4384WAT     H113671   2.795   1.603   5.613  1.6745  0.2763  0.5412
 4384WAT     H213672   2.718   1.716   5.548 -0.7574 -2.1856 -1.1124
 4385WAT      O13673   3.794   4.816   0.568 -0.1327 -0.5404 -0.1277
 4385WAT     H113674   3.813   4.729   0.604 -0.9395 -0.4931  0.4329
 4385WAT     H213675   3.708   4.839   0.604  0.8019  1.2263  1.1508
 4386WAT      O13676   2.569   5.125   1.412  0.1179  0.0455  0.2508
 4386WAT     H113677   2.663   5.108   1.413 -0.0487 -1.0139  0.0559
 4386WAT     H213678   2.543   5.122   1.504 -0.0694 -2.0283  0.1926
 4387WAT      O13679   2.764   3.468   5.678 -0.0819  0.0719  0.2356
 4387WAT     H113680   2.846   3.422   5.696 -0.1528 -0.1845 -0.0796
 4387WAT     H213681   2.727   3.486   5.764  0.6263  0.7829  0.3942
 4388WAT      O13682   4.032   4.733   1.604 -0.1571  0.5291 -0.0766
 4388WAT     H113683   3.997   4.821   1.599 -1.4166  0.0195 -0.4596
 4388WAT     H213684   4.125   4.745   1.623 -0.3310  1.9255 -0.0641
 4389WAT      O13685   6.203   3.349   0.904 -0.1661  0.3296  0.4919
 4389WAT     H113686   6.227   3.403   0.829 -2.2000  0.3983 -0.1552
 4389WAT     H213687   6.184   3.263   0.867  1.0086 -0.2929  1.2544
 4390WAT      O13688   4.007   5.949   2.684 -0.0800 -0.5399  0.0149
 4390WAT     H113689   3.981   5.858   2.669  2.2133 -1.5968  1.9414
 4390WAT     H213690   4.079   5.964   2.624  0.4769 -0.4826  0.6844
 4391WAT      O13691   0.877   4.854   2.060  0.3847 -0.1426  0.2921
 4391WAT     H113692   0.826   4.934   2.074  2.0876  1.1416 -0.4030
 4391WAT     H213693   0.835   4.811   1.986 -0.7456 -0.0812  0.8776
 4392WAT      O13694   4.747   4.145   1.707 -0.0032  0.4145  0.1924
 4392WAT     H113695   4.658   4.176   1.725 -0.7501 -0.3489 -1.9536
 4392WAT     H213696   4.762   4.078   1.774 -1.8035 -0.7666 -0.4943
 4393WAT      O13697   2.598   3.673   0.253  0.0268 -0.0187 -0.3128
 4393WAT     H113698   2.572   3.698   0.164 -0.6943 -0.0226 -0.1088
 4393WAT     H213699   2.555   3.737   0.310 -1.6754 -1.5512  0.2065
 4394WAT      O13700   2.084   2.570   0.269 -0.2482 -0.1088 -0.3208
 4394WAT     H113701   2.051   2.528   0.349  0.7458 -2.2972 -0.9730
 4394WAT     H213702   2.126   2.499   0.221  1.3091  1.6309 -1.6688
 4395WAT      O13703   2.344   3.152   5.042 -0.2863  0.3358  0.1615
 4395WAT     H113704   2.344   3.237   5.087  0.5516  0.0256  0.7740
 4395WAT     H213705   2.435   3.140   5.014  0.1520 -1.3461  2.0306
 4396WAT      O13706   2.797   1.970   4.840 -0.5775 -0.8379 -0.3943
 4396WAT     H113707   2.819   1.887   4.798 -1.5677 -0.2569 -2.1587
 4396WAT     H213708   2.876   2.023   4.830 -0.0739 -1.4093  0.4041
 4397WAT      O13709   2.354   4.969   5.678  0.2612  0.2726 -0.4299
 4397WAT     H113710   2.377   5.051   5.721  0.7875  0.1036 -0.3915
 4397WAT     H213711   2.266   4.950   5.711  0.7760 -0.0215  0.8492
 4398WAT      O13712   1.510   0.941   4.814  0.1323 -0.8487  0.1666
 4398WAT     H113713   1.518   0.975   4.724  0.6876 -0.5649  0.3168
 4398WAT     H213714   1.425   0.973   4.844 -0.3151 -1.4376 -0.4618
 4399WAT      O13715   3.161   1.302   0.020  0.5039  0.0997 -0.2299
 4399WAT     H113716   3.221   1.267  -0.045  0.6681 -1.8917  0.9256
 4399WAT     H213717   3.085   1.244   0.018  0.8767 -0.5501  1.9141
 4400WAT      O13718   5.145   4.600   0.887  0.2505  0.1148  0.1384
 4400WAT     H113719   5.226   4.603   0.938  0.2878  0.0560  0.0821
 4400WAT     H213720   5.172   4.571   0.800  0.2316  0.5210 -0.0042
 4401WAT      O13721   2.796   3.959   0.144 -0.4642 -0.2475 -0.2906
 4401WAT     H113722   2.804   3.905   0.066 -2.4483 -0.0327 -0.6877
 4401WAT     H213723   2.885   3.987   0.163  0.0662 -0.3774 -2.4136
 4402WAT      O13724   4.386   2.629   5.378  0.1273 -0.1214 -0.4136
 4402WAT     H113725   4.443   2.583   5.439  2.0358  1.2681 -1.0795
 4402WAT     H213726   4.422   2.609   5.292 -0.1856  1.0511 -0.8294
 4403WAT      O13727   3.147   4.366   3.313 -0.0490  0.0460  0.1026
 4403WAT     H113728   3.191   4.419   3.247 -0.1228 -0.7783 -0.6264
 4403WAT     H213729   3.056   4.399   3.313  0.0795  0.4098  0.1913
 4404WAT      O13730   4.493   2.476   2.428 -0.0730  0.1627 -0.3293
 4404WAT     H113731   4.555   2.439   2.492  0.6587  0.4864 -0.8413
 4404WAT     H213732   4.530   2.453   2.343  0.4685  2.1527 -0.6789
 4405WAT      O13733   3.331   2.018   0.498 -0.1241  0.3316 -0.1357
 4405WAT     H113734   3.417   1.985   0.472 -0.2608 -0.7102  0.6837
 4405WAT     H213735   3.349   2.104   0.535  0.8132 -0.5595  1.6071
 4406WAT      O13736   3.985   2.219   0.399 -0.0763 -0.7187  0.3673
 4406WAT     H113737   3.985   2.311   0.426 -0.7990 -0.7086  0.3378
 4406WAT     H213738   3.948   2.173   0.474 -0.2427 -0.9183  0.1633
 4407WAT      O13739   2.564   3.181   5.956  0.1876  0.2516 -0.2119
 4407WAT     H113740   2.470   3.200   5.967 -0.1882 -1.0124 -1.0210
 4407WAT     H213741   2.602   3.264   5.928 -0.5518  0.9693  0.8330
 4408WAT      O13742   2.587   0.905   0.854  0.4427 -0.6207  0.5197
 4408WAT     H113743   2.633   0.941   0.930 -0.6564  1.7191  0.1628
 4408WAT     H213744   2.507   0.957   0.847 -0.2027 -1.7531 -1.3867
 4409WAT      O13745   2.552   1.149   5.989 -0.2434  0.2037  0.0523
 4409WAT     H113746   2.554   1.059   5.957  1.9221  0.4095 -0.5761
 4409WAT     H213747   2.628   1.156   6.048 -0.5106  1.5368  0.2849
 4410WAT      O13748   2.545   1.042   4.605 -0.5118 -0.0498  0.4818
 4410WAT     H113749   2.614   0.987   4.642  0.0480  1.1386  1.2753
 4410WAT     H213750   2.499   1.078   4.682  0.4646  2.2192  0.0867
 4411WAT      O13751   1.451   2.294   0.630  0.1052  0.0351 -0.2675
 4411WAT     H113752   1.397   2.367   0.662  1.7282  1.0510  0.2609
 4411WAT     H213753   1.494   2.260   0.708  2.5266  1.2108 -1.0086
 4412WAT      O13754   1.402   1.633   0.218 -0.4724  0.1070  0.1575
 4412WAT     H113755   1.413   1.554   0.271 -0.7875 -0.3432 -0.4290
 4412WAT     H213756   1.308   1.651   0.222 -0.9603 -1.3988 -2.2365
 4413WAT      O13757   2.347   1.725   5.054 -0.0261 -0.6171  0.0545
 4413WAT     H113758   2.298   1.782   5.113  0.5952 -1.3013  1.2599
 4413WAT     H213759   2.418   1.780   5.021  1.0437 -0.8607  1.8270
 4414WAT      O13760   3.513   4.303   4.225  0.2019 -0.5903  0.0172
 4414WAT     H113761   3.489   4.284   4.316  1.5365  0.6884  0.6786
 4414WAT     H213762   3.543   4.218   4.191 -0.4545 -1.1152  0.7184
 4415WAT      O13763   3.742   3.760   5.927  0.1291  0.1015  0.1509
 4415WAT     H113764   3.698   3.805   5.855 -0.7665 -1.2939 -0.2329
 4415WAT     H213765   3.831   3.744   5.894 -0.3721 -0.8394 -0.8373
 4416WAT      O13766   4.385   2.201   4.087 -0.3789  0.6149  0.4054
 4416WAT     H113767   4.395   2.141   4.161 -2.7953 -0.7166 -0.2384
 4416WAT     H213768   4.356   2.283   4.126 -1.0617  0.0975  1.0136
 4417WAT      O13769   3.167   1.366   4.498 -0.3520  0.0719  0.3103
 4417WAT     H113770   3.110   1.404   4.565 -0.4574  0.1301  0.1876
 4417WAT     H213771   3.224   1.306   4.546  0.9170  1.5724  0.7715
 4418WAT      O13772   3.871   3.939   4.835 -0.1745  0.1073  0.3520
 4418WAT     H113773   3.921   3.860   4.813 -0.2933 -0.1616  1.0138
 4418WAT     H213774   3.781   3.908   4.844 -0.6289  0.7295 -1.6294
 4419WAT      O13775   1.505   2.042   5.405 -0.2522 -0.0554  0.2512
 4419WAT     H113776   1.586   2.072   5.446  0.0106  0.2966 -0.5247
 4419WAT     H213777   1.444   2.115   5.417  0.1664  0.5228 -0.9762
 4420WAT      O13778   2.505   2.050   4.662 -0.3489 -0.6685  0.3770
 4420WAT     H113779   2.572   2.116   4.648  0.7435 -1.9453 -0.6053
 4420WAT     H213780   2.441   2.093   4.719  1.2858  0.5778  1.3669
 4421WAT      O13781   2.040   1.155   5.195 -0.1606  0.1148  0.0991
 4421WAT     H113782   2.013   1.139   5.286 -1.9066 -2.1865 -0.7167
 4421WAT     H213783   1.959   1.169   5.148  0.6163  0.0135 -1.3235
 4422WAT      O13784   4.264   2.266   5.133 -0.5140  0.1295  0.6418
 4422WAT     H113785   4.338   2.326   5.122 -0.9439  0.7827  1.2111
 4422WAT     H213786   4.303   2.184   5.163  0.0724  0.1397 -0.0639
 4423WAT      O13787   4.171   3.215   1.047 -0.0381  0.0672  0.1527
 4423WAT     H113788   4.213   3.140   1.006  3.5441  2.0136 -0.2134
 4423WAT     H213789   4.083   3.218   1.009  0.4959 -2.5643 -1.5283
 4424WAT      O13790   0.141   2.527   0.413  0.2031  0.1612 -0.2128
 4424WAT     H113791   0.149   2.451   0.470 -1.4170 -0.0617 -0.2438
 4424WAT     H213792   0.232   2.552   0.393  0.7624 -1.4726  0.1606
 4425WAT      O13793   2.501   2.862   4.784  0.1141 -0.4519  0.3019
 4425WAT     H113794   2.420   2.815   4.802 -0.4250  0.3371 -0.0154
 4425WAT     H213795   2.474   2.934   4.727  0.9928 -0.0043  0.4459
 4426WAT      O13796   3.393   2.830   5.574 -0.1248 -0.0013  0.7948
 4426WAT     H113797   3.407   2.925   5.572 -0.2181  0.0164 -0.9912
 4426WAT     H213798   3.476   2.794   5.605  0.6107  0.5960 -0.3815
 4427WAT      O13799   0.968   1.277   4.442  0.3969  0.0953 -0.0924
 4427WAT     H113800   0.890   1.332   4.439 -0.1332 -0.5581  1.1580
 4427WAT     H213801   1.000   1.285   4.532  1.1371 -0.5091 -0.2930
 4428WAT      O13802   0.237   1.936   4.565 -0.0816 -0.0291  0.1799
 4428WAT     H113803   0.150   1.901   4.545 -0.6582  1.4272  0.0752
 4428WAT     H213804   0.274   1.959   4.480 -0.3592  1.0979  0.3515
 4429WAT      O13805   4.272   0.532   4.622  0.2929 -0.2299 -0.3395
 4429WAT     H113806   4.224   0.605   4.661  0.0528  0.5386 -1.9729
 4429WAT     H213807   4.252   0.457   4.678 -1.6207  0.3985 -0.1003
 4430WAT      O13808   3.725   3.080   4.780 -0.2119 -0.0544 -0.3895
 4430WAT     H113809   3.639   3.087   4.821  0.0974 -1.1888  0.4947
 4430WAT     H213810   3.716   3.009   4.716  0.3528 -0.9982  0.5391
 4431WAT      O13811   1.630   3.547   0.520  0.1214  0.0614 -0.2314
 4431WAT     H113812   1.620   3.613   0.451  1.6514 -0.3997 -0.9207
 4431WAT     H213813   1.724   3.543   0.537 -0.2378  0.6161  2.3813
 4432WAT      O13814   2.215   0.204   5.453  0.5281 -0.3084 -0.2293
 4432WAT     H113815   2.179   0.234   5.536  0.5967  0.2760 -0.4097
 4432WAT     H213816   2.209   0.108   5.458 -0.8584 -0.2392 -0.1847
 4433WAT      O13817   3.772   1.445   5.171 -0.3020 -0.3048  0.1697
 4433WAT     H113818   3.680   1.454   5.195 -0.0220  0.2584  1.0893
 4433WAT     H213819   3.775   1.471   5.079 -0.9042  0.6786  0.4099
 4434WAT      O13820   4.785   1.987   4.560 -0.2125  0.4852 -0.1196
 4434WAT     H113821   4.822   1.943   4.483 -0.1394  1.4680 -0.6624
 4434WAT     H213822   4.697   2.012   4.532 -0.3929  0.3550  0.3190
 4435WAT      O13823   3.090   4.586   5.895  0.4180 -0.3979  0.2124
 4435WAT     H113824   3.122   4.515   5.839  1.0508  0.5956 -0.7238
 4435WAT     H213825   3.107   4.555   5.984  2.4646 -0.6437 -0.2082
 4436WAT      O13826   2.243   5.499   1.457 -0.1674 -0.6920  0.0746
 4436WAT     H113827   2.336   5.492   1.479 -0.5634 -1.2420  1.7829
 4436WAT     H213828   2.235   5.583   1.412  1.1424 -0.5837  0.0132
 4437WAT      O13829   1.612   1.661   4.841  0.4629  0.5790  0.0421
 4437WAT     H113830   1.623   1.724   4.770  2.6195  2.1834  1.6521
 4437WAT     H213831   1.621   1.576   4.799  1.9980  1.4664 -1.6107
 4438WAT      O13832   1.820   2.898   5.217 -0.2231 -0.3860  0.1270
 4438WAT     H113833   1.891   2.895   5.282 -0.8710 -1.7643  0.8115
 4438WAT     H213834   1.817   2.990   5.190  0.5138  0.0986  1.5581
 4439WAT      O13835   1.684   0.953   5.360  0.1089 -0.4381  0.0370
 4439WAT     H113836   1.640   0.972   5.277  0.8866 -1.5518 -0.6670
 4439WAT     H213837   1.651   1.019   5.421 -3.4984 -1.9269 -0.0736
 4440WAT      O13838   3.960   3.359   4.603  0.1499  0.8761  0.3194
 4440WAT     H113839   3.869   3.345   4.578  0.0138  0.0350  1.2373
 4440WAT     H213840   3.991   3.426   4.543 -0.6545  0.1505 -0.9539
 4441WAT      O13841   1.704   3.506   5.404  0.2024  0.2551 -0.1212
 4441WAT     H113842   1.784   3.475   5.445 -0.4266 -0.6873  0.4492
 4441WAT     H213843   1.648   3.533   5.478 -0.1394  0.5670 -0.4870
 4442WAT      O13844   3.402   2.129   3.158  0.3984  0.2617  0.0632
 4442WAT     H113845   3.490   2.161   3.139  0.2346  1.3405  1.0093
 4442WAT     H213846   3.345   2.178   3.099  0.3220  0.4474  0.2873
 4443WAT      O13847   3.790   2.903   0.054  0.1175  0.3362 -0.4820
 4443WAT     H113848   3.791   2.810   0.033  1.2782  0.2121  0.0809
 4443WAT     H213849   3.755   2.945  -0.025  0.9616 -0.4422 -1.2879
 4444WAT      O13850   1.272   2.226   5.510 -0.2921  0.4163 -0.1531
 4444WAT     H113851   1.259   2.273   5.427 -3.0573  3.3000  1.6567
 4444WAT     H213852   1.337   2.278   5.557 -1.2958  0.8713  0.7790
 4445WAT      O13853   3.708   4.486   4.175 -0.1748 -0.2555  0.3672
 4445WAT     H113854   3.640   4.423   4.199  0.1524 -0.1443  1.6514
 4445WAT     H213855   3.693   4.560   4.233  1.0366 -0.2269  0.6610
 4446WAT      O13856   4.299   2.496   0.221  0.1209  0.0003 -0.3819
 4446WAT     H113857   4.347   2.568   0.261 -0.2904 -0.2772  0.6511
 4446WAT     H213858   4.323   2.499   0.128  1.3634  0.4650 -0.0672
 4447WAT      O13859   4.892   3.139   5.151 -0.1450  0.3734 -0.0341
 4447WAT     H113860   4.945   3.165   5.076  0.2064 -0.1145  0.0410
 4447WAT     H213861   4.954   3.137   5.224 -0.5018  0.9317  0.2952
 4448WAT      O13862   0.853   0.751   4.802  0.4336 -0.0967  0.7214
 4448WAT     H113863   0.775   0.728   4.851  0.8593 -0.8050  1.0838
 4448WAT     H213864   0.850   0.846   4.794 -1.4650 -0.2391 -0.9663
 4449WAT      O13865   2.756   2.505   5.879  0.6460  0.1033  0.0498
 4449WAT     H113866   2.716   2.545   5.802  0.1123  1.7136  1.0919
 4449WAT     H213867   2.846   2.539   5.879  0.9069 -0.5762 -0.3110
 4450WAT      O13868   2.930   1.218   3.116  0.5914  0.5511 -0.5513
 4450WAT     H113869   2.841   1.251   3.121  0.9157  1.2566  2.5115
 4450WAT     H213870   2.920   1.123   3.106 -0.5414  0.5545  0.3657
 4451WAT      O13871   2.253   1.846   0.861  0.2054  0.0149 -0.2475
 4451WAT     H113872   2.208   1.801   0.932 -0.1327 -0.0744 -0.5149
 4451WAT     H213873   2.207   1.930   0.852 -0.0529 -0.1693 -0.6665
 4452WAT      O13874   3.702   0.851   1.493 -0.4119  0.2942 -0.3970
 4452WAT     H113875   3.742   0.873   1.578  1.5848  1.4472 -1.5527
 4452WAT     H213876   3.612   0.826   1.515  0.2991 -0.3240  2.1385
 4453WAT      O13877   2.227   2.755   4.856  0.2091 -0.4119  0.3047
 4453WAT     H113878   2.169   2.830   4.839 -1.0698 -1.9644 -3.2426
 4453WAT     H213879   2.167   2.680   4.860  1.7270 -1.6615  0.3842
 4454WAT      O13880   2.365   4.137   4.716  0.0413  0.0436 -0.2015
 4454WAT     H113881   2.283   4.102   4.682 -1.4945  1.7499  1.5482
 4454WAT     H213882   2.373   4.223   4.676  0.5364  0.2180  0.2557
 4455WAT      O13883   1.206   4.448   5.703 -0.2517  0.1534  0.8125
 4455WAT     H113884   1.254   4.366   5.691 -2.3083 -0.9643 -0.3681
 4455WAT     H213885   1.249   4.510   5.644  2.0637  0.3544  2.5696
 4456WAT      O13886   3.269   4.542   5.248 -0.0793  0.8225 -0.2677
 4456WAT     H113887   3.234   4.631   5.246 -0.1454  0.8026 -2.5366
 4456WAT     H213888   3.193   4.486   5.227 -0.1181  0.1620  1.4607
 4457WAT      O13889   3.313   1.562   0.895  0.2602 -0.5059 -0.5183
 4457WAT     H113890   3.367   1.490   0.928 -0.3014 -0.2919  0.9522
 4457WAT     H213891   3.373   1.636   0.889  0.4900 -0.6905 -0.5086
 4458WAT      O13892   2.310   1.769   5.947 -0.1503  0.1069 -0.1458
 4458WAT     H113893   2.358   1.696   5.908  1.4793  0.7025  0.6151
 4458WAT     H213894   2.349   1.847   5.907  1.2826  0.7156  2.2014
 4459WAT      O13895   4.217   3.856   5.350  0.1999 -0.0230  0.2627
 4459WAT     H113896   4.253   3.768   5.335  0.3299  0.2192 -0.9909
 4459WAT     H213897   4.130   3.853   5.311  0.2500  0.4292  0.1115
 4460WAT      O13898   1.288   1.780   4.776 -0.1764  0.0998 -0.5390
 4460WAT     H113899   1.273   1.842   4.847 -0.6546  0.0077 -0.5598
 4460WAT     H213900   1.266   1.695   4.813  0.3116 -0.0424 -0.5655
 4461WAT      O13901   1.860   5.971   2.707  0.0511 -0.3705  0.3607
 4461WAT     H113902   1.809   5.895   2.678 -0.1553 -0.0845 -0.0403
 4461WAT     H213903   1.816   6.001   2.786  0.4034 -0.9429  0.7793
 4462WAT      O13904   1.835   2.841   4.648  0.0809 -0.3317 -0.0887
 4462WAT     H113905   1.747   2.804   4.653  0.0101 -0.7782 -2.9041
 4462WAT     H213906   1.887   2.774   4.604  1.0840  1.0678 -1.1259
 4463WAT      O13907   3.116   2.055   0.349 -0.4112  0.7213 -0.1106
 4463WAT     H113908   3.052   1.985   0.359  0.7340 -0.7523 -2.1580
 4463WAT     H213909   3.199   2.016   0.377  0.4230  0.8293 -2.2023
 4464WAT      O13910   1.822   2.312   0.769  0.3042  0.0920  0.0302
 4464WAT     H113911   1.806   2.405   0.750  1.5334  0.3536  0.1670
 4464WAT     H213912   1.892   2.287   0.708 -1.2307 -1.2672 -1.2735
 4465WAT      O13913   3.326   0.984   4.470 -0.1844  0.6511 -0.4189
 4465WAT     H113914   3.341   1.068   4.514  0.3439  0.2360  0.2242
 4465WAT     H213915   3.328   1.004   4.377  0.1371  1.3186 -0.2725
 4466WAT      O13916   4.051   3.734   5.914  0.3806  0.1535 -0.8468
 4466WAT     H113917   4.130   3.784   5.896 -0.2032  1.1179 -0.7896
 4466WAT     H213918   4.020   3.768   5.998 -0.1888 -0.0808 -0.9575
 4467WAT      O13919   2.211   2.472   4.947  0.1956 -0.3615  0.0042
 4467WAT     H113920   2.259   2.541   4.994 -0.6879  0.4460 -0.2360
 4467WAT     H213921   2.133   2.517   4.914 -0.4899 -1.5377  0.0019
 4468WAT      O13922   3.237   3.762   1.500 -0.0132  0.8305  0.5420
 4468WAT     H113923   3.196   3.756   1.586  0.1295 -0.3180  0.5468
 4468WAT     H213924   3.192   3.695   1.448  0.4880  0.9346 -0.0283
 4469WAT      O13925   2.742   4.776   4.968 -0.1422 -0.1117  0.5490
 4469WAT     H113926   2.762   4.684   4.951 -1.0727 -0.3705  0.8205
 4469WAT     H213927   2.823   4.810   5.007  0.3184 -0.7290  0.1530
 4470WAT      O13928   3.882   2.966   0.713  0.0601 -0.5354  0.3980
 4470WAT     H113929   3.792   2.991   0.732 -0.3694 -0.2996 -1.7468
 4470WAT     H213930   3.903   3.011   0.631  2.1648 -0.5240  0.8721
 4471WAT      O13931   3.089   1.152   0.444  0.4906  0.9878 -0.5857
 4471WAT     H113932   3.064   1.244   0.439  1.2105  1.2140 -0.1746
 4471WAT     H213933   3.010   1.104   0.418 -0.6462  1.6418  1.4449
 4472WAT      O13934   1.049   0.878   4.510  0.7556  0.0790 -0.6379
 4472WAT     H113935   1.053   0.804   4.571 -0.1373  0.5639  0.0382
 4472WAT     H213936   1.139   0.909   4.504  0.5835  1.6193  2.4937
 4473WAT      O13937   3.662   3.474   5.571 -0.0700  0.1018 -0.0157
 4473WAT     H113938   3.671   3.423   5.490 -1.0520 -1.7175  0.9582
 4473WAT     H213939   3.745   3.463   5.615  0.3715  0.8754 -0.6258
 4474WAT      O13940   3.075   2.030   5.651  0.1495 -0.3108  0.5697
 4474WAT     H113941   3.059   1.938   5.672  1.2678 -0.7126 -0.2508
 4474WAT     H213942   3.048   2.078   5.730 -2.0150 -1.1691  0.4044
 4475WAT      O13943   3.013   1.406   4.757  0.2664 -0.1617 -0.1210
 4475WAT     H113944   2.959   1.485   4.748  0.7168  0.7106  3.2806
 4475WAT     H213945   2.951   1.339   4.787  0.3415 -0.4107 -0.5121
 4476WAT      O13946   3.523   2.529   0.221  0.1655 -0.1190  0.5877
 4476WAT     H113947   3.530   2.462   0.152 -3.4355 -0.4324  0.3729
 4476WAT     H213948   3.517   2.480   0.302 -2.1506 -0.1584  0.4583
 4477WAT      O13949   3.657   0.913   4.021  0.3575  0.1102  0.8099
 4477WAT     H113950   3.712   0.986   4.048 -1.2410  1.1062  1.5686
 4477WAT     H213951   3.634   0.868   4.103 -1.5878  0.9641  0.7843
 4478WAT      O13952   3.904   3.537   0.324 -0.0087  0.0317 -0.6501
 4478WAT     H113953   3.977   3.486   0.288  0.6053  0.9671 -0.7543
 4478WAT     H213954   3.836   3.531   0.257 -1.1637 -3.1819  0.6261
 4479WAT      O13955   2.029   0.434   3.640 -1.0810  0.1359 -0.2148
 4479WAT     H113956   2.073   0.375   3.700  1.2678 -1.0429 -2.8668
 4479WAT     H213957   1.936   0.421   3.657 -0.5330 -0.8397  2.4119
 4480WAT      O13958   3.444   1.025   5.451  0.4088  0.0332 -0.0108
 4480WAT     H113959   3.461   1.108   5.407 -1.9978  0.6078  0.0387
 4480WAT     H213960   3.437   0.961   5.381  1.3980  0.0067 -0.1025
 4481WAT      O13961   4.618   0.626   1.581 -0.5454  0.2146  0.1964
 4481WAT     H113962   4.619   0.531   1.581 -0.2215  0.2190 -0.1172
 4481WAT     H213963   4.702   0.652   1.618  0.4120  0.3817 -1.9521
 4482WAT      O13964   3.225   1.244   1.171  0.3393  0.4252 -0.4074
 4482WAT     H113965   3.309   1.229   1.129  0.8438 -0.6408  0.9112
 4482WAT     H213966   3.244   1.309   1.239 -0.3059  1.5524 -1.2607
 4483WAT      O13967   5.277   2.845   5.581  0.5175  0.2445 -0.1411
 4483WAT     H113968   5.351   2.904   5.567  0.1913  0.8933  0.7606
 4483WAT     H213969   5.310   2.782   5.646  0.6116 -0.1065 -0.5242
 4484WAT      O13970   4.278   3.026   0.240  0.2670  0.5354  0.0170
 4484WAT     H113971   4.190   2.994   0.220  1.1113 -1.4637 -0.8837
 4484WAT     H213972   4.276   3.048   0.333 -1.0233 -0.0461  0.1470
 4485WAT      O13973   4.876   3.621   0.592 -0.0278 -0.2475 -0.1627
 4485WAT     H113974   4.782   3.604   0.603 -0.1695  1.0412  1.0749
 4485WAT     H213975   4.916   3.535   0.590 -1.1890 -0.8123 -0.1059
 4486WAT      O13976   3.167   0.809   5.909  0.1068  0.3288  0.2034
 4486WAT     H113977   3.160   0.714   5.894 -3.4911  0.4802 -0.0254
 4486WAT     H213978   3.194   0.844   5.824 -1.6817 -0.3091 -0.6869
 4487WAT      O13979   2.232   1.737   4.788  0.2736  0.4742 -0.4100
 4487WAT     H113980   2.266   1.720   4.876  1.5631 -2.6132 -1.3442
 4487WAT     H213981   2.137   1.732   4.797  0.3151  1.8143  1.0459
 4488WAT      O13982   2.146   3.244   4.868  0.5623  0.2141  0.2267
 4488WAT     H113983   2.201   3.194   4.928  1.0438 -1.4043 -1.4430
 4488WAT     H213984   2.060   3.202   4.873 -0.2769  1.9593  1.9088
 4489WAT      O13985   1.959   0.278   0.814  0.2439 -0.0658 -0.6023
 4489WAT     H113986   1.925   0.350   0.866  0.5917 -0.6493  0.4612
 4489WAT     H213987   1.884   0.219   0.804  0.4301 -0.4419  0.1288
 4490WAT      O13988   3.261   2.576   0.420  0.0823 -0.2231 -0.0191
 4490WAT     H113989   3.346   2.610   0.392 -0.6603  1.1568 -0.7647
 4490WAT     H213990   3.208   2.654   0.434 -1.0407 -1.0514  0.5168
 4491WAT      O13991   4.000   0.382   4.908 -0.5778 -0.5539  0.1098
 4491WAT     H113992   4.082   0.332   4.910 -0.5480 -0.6190 -1.6603
 4491WAT     H213993   4.015   0.454   4.969 -0.0534 -1.8091  1.5431
 4492WAT      O13994   3.494   0.410   5.249  0.1264 -0.6917  0.2466
 4492WAT     H113995   3.525   0.480   5.307 -0.4383 -2.1578  2.4710
 4492WAT     H213996   3.552   0.336   5.268 -0.7415 -1.5248 -0.2746
 4493WAT      O13997   1.888   2.909   0.239 -0.1733  0.4201 -0.0505
 4493WAT     H113998   1.953   2.945   0.179  0.8615  0.0284  0.7969
 4493WAT     H213999   1.935   2.899   0.322 -1.0682 -0.6804  0.3517
 4494WAT      O14000   2.732   0.086   4.860 -0.1779 -0.1407 -0.3558
 4494WAT     H114001   2.709   0.175   4.885  0.1100  0.0936 -0.9092
 4494WAT     H214002   2.812   0.095   4.808  0.0637 -0.7570 -0.1072
 4495WAT      O14003   2.418   2.168   5.550 -0.7085 -0.3094 -0.3366
 4495WAT     H114004   2.353   2.204   5.489 -1.8241 -3.8068 -1.4478
 4495WAT     H214005   2.502   2.195   5.514 -1.4054  1.3940 -0.8349
 4496WAT      O14006   3.854   0.456   5.265  0.0590  0.4139  0.0630
 4496WAT     H114007   3.771   0.486   5.227  0.6271  0.8788 -0.8573
 4496WAT     H214008   3.853   0.492   5.354 -0.6886  0.4903  0.0319
 4497WAT      O14009   1.335   2.064   4.408 -0.1116 -0.1727  0.0844
 4497WAT     H114010   1.332   2.058   4.504  0.0442  0.0996  0.1076
 4497WAT     H214011   1.372   1.980   4.380 -2.7363 -1.4160  0.0940
 4498WAT      O14012   3.388   2.264   0.667  0.2845  0.0817  0.3573
 4498WAT     H114013   3.388   2.236   0.759  1.6894 -0.3869  0.2362
 4498WAT     H214014   3.312   2.322   0.660  0.2195  0.2238  1.8452
 4499WAT      O14015   4.651   1.216   5.598  0.2718  0.1666  0.9185
 4499WAT     H114016   4.709   1.274   5.549  3.2939 -1.1230  2.6452
 4499WAT     H214017   4.638   1.261   5.682 -0.0354 -0.1974  1.0675
 4500WAT      O14018   3.507   3.567   5.772 -0.0310 -0.2926 -0.7410
 4500WAT     H114019   3.538   3.497   5.829 -1.7307  0.5501  1.3576
 4500WAT     H214020   3.554   3.553   5.689  1.9548 -2.0473  0.5718
 4501WAT      O14021   1.522   3.428   2.827  0.4024 -0.0337 -0.6220
 4501WAT     H114022   1.435   3.464   2.846 -0.0663 -1.2768 -0.3112
 4501WAT     H214023   1.510   3.333   2.830  1.9887 -0.2413  0.4245
 4502WAT      O14024   2.502   1.500   5.162 -1.1117 -0.0835  0.5223
 4502WAT     H114025   2.423   1.447   5.174 -1.5107  0.2392 -0.5862
 4502WAT     H214026   2.472   1.590   5.170 -0.9498  0.0545 -0.3697
 4503WAT      O14027   4.108   2.691   5.402  0.3963 -0.3632  0.0049
 4503WAT     H114028   4.095   2.682   5.308 -0.5776  0.7114  0.0262
 4503WAT     H214029   4.175   2.625   5.423  0.3160 -0.9027 -1.3535
 4504WAT      O14030   3.807   2.846   4.234 -0.0187  0.4136  0.0227
 4504WAT     H114031   3.768   2.918   4.186  0.9772  0.4822 -0.7155
 4504WAT     H214032   3.890   2.881   4.266  0.0048 -0.0952  0.5463
 4505WAT      O14033   2.362   0.273   1.702 -0.4633 -0.0390  0.1565
 4505WAT     H114034   2.447   0.232   1.685 -1.0694 -1.8464  1.1519
 4505WAT     H214035   2.383   0.355   1.745  0.8054  0.3544 -1.1506
 4506WAT      O14036   2.896   2.566   4.120  0.1771  0.5749 -0.1262
 4506WAT     H114037   2.939   2.481   4.133 -0.2214  0.4426  0.3402
 4506WAT     H214038   2.841   2.577   4.197  2.2858  2.5183  1.2239
 4507WAT      O14039   2.669   1.075   3.453 -0.1578  0.0672  0.4942
 4507WAT     H114040   2.628   1.042   3.533  0.5509  1.1433  1.3280
 4507WAT     H214041   2.600   1.128   3.411 -0.3313  0.0252  0.7249
 4508WAT      O14042   3.790   0.724   3.326  0.0324 -0.4060 -0.8370
 4508WAT     H114043   3.725   0.655   3.330 -0.4576  0.0854  1.7620
 4508WAT     H214044   3.861   0.693   3.382 -0.3926  1.2794  0.7571
 4509WAT      O14045   1.979   1.406   2.703 -0.3288 -0.5513  0.1253
 4509WAT     H114046   2.034   1.484   2.706  0.3848 -1.0391 -0.1405
 4509WAT     H214047   1.898   1.433   2.746 -0.4677  0.6334 -0.8115
 4510WAT      O14048   4.965   1.591   5.114  0.1372  0.1261  0.3334
 4510WAT     H114049   4.928   1.552   5.035  1.5736  1.9458 -1.3569
 4510WAT     H214050   4.938   1.682   5.110 -0.0445  0.1824  2.1793
 4511WAT      O14051   0.864   0.886   3.142  0.1102 -0.0760  0.0864
 4511WAT     H114052   0.903   0.807   3.105  0.7053  0.0992  0.3268
 4511WAT     H214053   0.929   0.918   3.205  0.3081  1.1287 -0.6935
 4512WAT      O14054   3.019   1.614   3.624 -0.1680  0.2819 -0.3281
 4512WAT     H114055   3.068   1.649   3.697 -2.0143 -3.0291  2.8397
 4512WAT     H214056   3.085   1.582   3.563  1.6260 -0.4489  1.8629
 4513WAT      O14057   4.662   5.749   3.693  0.2468  0.4088  0.4331
 4513WAT     H114058   4.631   5.839   3.700  1.6083  1.0765 -1.2308
 4513WAT     H214059   4.601   5.707   3.633  1.1308  1.0376 -0.9516
 4514WAT      O14060   3.021   0.716   2.286 -0.1168 -0.0391 -0.1197
 4514WAT     H114061   2.988   0.734   2.198 -0.8686 -0.4908  0.0539
 4514WAT     H214062   2.953   0.751   2.344  0.8374  1.1449  0.3047
 4515WAT      O14063   3.855   0.408   3.579 -0.2130  0.7053 -0.1811
 4515WAT     H114064   3.893   0.496   3.579 -0.8911  1.0042  0.1718
 4515WAT     H214065   3.918   0.355   3.628  0.1412  1.0179 -0.2973
 4516WAT      O14066   2.302   3.277   4.272 -0.7233  0.2805 -0.1227
 4516WAT     H114067   2.217   3.272   4.317 -1.3209  0.2808 -1.1901
 4516WAT     H214068   2.293   3.353   4.214 -0.2912 -0.1904 -0.8155
 4517WAT      O14069   2.303   1.662   3.070 -0.6979 -0.1083 -0.1714
 4517WAT     H114070   2.314   1.670   2.975 -0.3316 -1.1793 -0.2299
 4517WAT     H214071   2.385   1.698   3.106 -0.0880 -1.2884 -0.3376
 4518WAT      O14072   2.339   2.258   4.426  0.1333  0.1225  0.3049
 4518WAT     H114073   2.385   2.174   4.420 -0.2629 -0.0659 -0.2077
 4518WAT     H214074   2.265   2.240   4.484  0.9236  0.5376  1.4883
 4519WAT      O14075   2.633   3.292   4.202  0.4170  0.5739 -0.6091
 4519WAT     H114076   2.620   3.211   4.252 -1.2304  0.9005 -0.4272
 4519WAT     H214077   2.607   3.361   4.262 -1.2495  0.9966 -1.7328
 4520WAT      O14078   1.647   5.662   1.287 -0.3010  0.4697  0.8058
 4520WAT     H114079   1.554   5.651   1.304 -0.8826  0.8199 -1.7474
 4520WAT     H214080   1.651   5.712   1.206  2.0802 -0.7237  0.0845
 4521WAT      O14081   3.586   2.817   3.340 -0.0863 -0.4342  0.4361
 4521WAT     H114082   3.586   2.911   3.353 -1.9096 -0.4871  0.9893
 4521WAT     H214083   3.537   2.803   3.259  0.1256 -0.9076  0.3828
 4522WAT      O14084   3.311   2.401   3.957  0.5987  0.0328 -0.4261
 4522WAT     H114085   3.356   2.380   3.875  1.5569 -3.5214  0.8318
 4522WAT     H214086   3.376   2.386   4.025 -1.2612 -1.0781  1.2110
 4523WAT      O14087   5.545   2.129   3.442 -0.0124  0.1200 -0.3004
 4523WAT     H114088   5.571   2.135   3.350  0.2828 -0.6027 -0.2772
 4523WAT     H214089   5.454   2.102   3.440 -0.4421  1.5013 -0.3774
 4524WAT      O14090   3.850   2.204   3.810 -0.0311 -0.4122  0.2333
 4524WAT     H114091   3.759   2.197   3.839 -0.9508  0.6342 -2.0943
 4524WAT     H214092   3.872   2.117   3.777  0.3113 -1.0259  1.9749
 4525WAT      O14093   3.095   2.723   3.510 -0.5033 -0.3938  0.3654
 4525WAT     H114094   3.024   2.787   3.499 -0.4543 -0.3581  0.2499
 4525WAT     H214095   3.054   2.650   3.556 -0.2553  0.2544  1.6664
 4526WAT      O14096   2.758   0.606   0.170 -0.4028 -0.4311  0.2245
 4526WAT     H114097   2.772   0.655   0.089  1.0297 -0.1336  0.6221
 4526WAT     H214098   2.701   0.662   0.222  0.1835  0.2401  0.1578
 4527WAT      O14099   4.083   2.022   3.278 -0.3030 -0.1618  0.9893
 4527WAT     H114100   4.096   2.054   3.367 -1.5059  0.4376  0.9650
 4527WAT     H214101   4.172   2.017   3.242  0.0450  2.4580  1.2565
 4528WAT      O14102   3.598   1.087   3.758 -0.8036  0.7758  0.0355
 4528WAT     H114103   3.543   1.081   3.680  0.2447  0.3531 -0.6993
 4528WAT     H214104   3.548   1.044   3.827 -0.3552 -1.9584 -1.2140
 4529WAT      O14105   4.227   0.457   3.739 -0.2872 -0.5132  0.3218
 4529WAT     H114106   4.142   0.445   3.781 -0.6698  0.7602 -0.0573
 4529WAT     H214107   4.222   0.404   3.660 -1.0763  0.2387 -0.1522
 4530WAT      O14108   4.257   2.422   2.537  0.6403 -0.1433  0.2982
 4530WAT     H114109   4.332   2.451   2.485  0.1863  0.1919 -0.1716
 4530WAT     H214110   4.281   2.445   2.627  1.1977 -0.2494  0.1821
 4531WAT      O14111   2.700   2.846   5.606  0.1217 -0.1305 -0.9607
 4531WAT     H114112   2.605   2.838   5.596 -0.1309  0.8810  0.4188
 4531WAT     H214113   2.711   2.895   5.687  1.8372 -0.4024 -1.0092
 4532WAT      O14114   3.721   3.366   5.303  0.3246 -0.0174 -0.0069
 4532WAT     H114115   3.661   3.310   5.253  0.6900 -0.6092  0.2102
 4532WAT     H214116   3.743   3.437   5.242  0.8891 -0.8097 -0.7549
 4533WAT      O14117   4.674   4.247   5.546 -0.5863  0.3341  0.3040
 4533WAT     H114118   4.610   4.308   5.511 -0.7584 -0.6041 -1.0873
 4533WAT     H214119   4.758   4.280   5.517 -0.8343 -1.6185 -3.1281
 4534WAT      O14120   3.264   2.799   3.746  0.3928  0.3240 -0.3804
 4534WAT     H114121   3.220   2.726   3.789 -1.1771  0.8708 -1.0151
 4534WAT     H214122   3.255   2.781   3.652  1.4063  0.5265 -0.5307
 4535WAT      O14123   4.348   4.566   4.487  0.1024 -0.2054 -0.0247
 4535WAT     H114124   4.369   4.512   4.563 -2.5058 -1.1326  0.1386
 4535WAT     H214125   4.257   4.545   4.467  0.5383  0.3453 -3.1497
 4536WAT      O14126   6.812   0.595   3.639  0.7310  0.1624 -0.1497
 4536WAT     H114127   6.773   0.593   3.551 -0.7404  0.7630  0.4519
 4536WAT     H214128   6.897   0.638   3.626 -0.3289  2.1845 -1.0088
 4537WAT      O14129   2.832   3.627   4.144  0.3094  0.2432  0.0165
 4537WAT     H114130   2.795   3.539   4.140  2.1033 -0.6544  1.7812
 4537WAT     H214131   2.756   3.685   4.149 -0.8885 -1.2419 -0.3404
 4538WAT      O14132   3.723   2.570   4.205  0.1644 -0.5337 -0.1529
 4538WAT     H114133   3.760   2.656   4.223 -0.5331 -0.4283  0.8101
 4538WAT     H214134   3.751   2.551   4.115  1.1044  0.2794 -0.0532
 4539WAT      O14135   4.272   2.883   4.024  0.4341  0.3071  0.4368
 4539WAT     H114136   4.299   2.793   4.009  1.2988  1.0339 -3.4661
 4539WAT     H214137   4.346   2.924   4.068  0.9988 -0.3743  0.1320
 4540WAT      O14138   4.217   4.927   3.458 -0.2136  0.2566  0.2458
 4540WAT     H114139   4.279   4.866   3.499  0.5135  0.1904 -0.8906
 4540WAT     H214140   4.149   4.871   3.421 -0.1448  0.2094  0.1894
 4541WAT      O14141   3.724   5.249   4.024 -0.1344  0.4833  0.0608
 4541WAT     H114142   3.746   5.278   4.112  1.6026  2.0183 -0.7852
 4541WAT     H214143   3.681   5.325   3.984 -1.8967 -0.5598 -0.1161
 4542WAT      O14144   2.654   2.008   5.164 -0.3443  0.1506 -0.2145
 4542WAT     H114145   2.629   1.923   5.127 -0.1350  1.5302 -3.9357
 4542WAT     H214146   2.745   2.020   5.137  0.9540  0.0861  3.4983
 4543WAT      O14147   4.506   2.129   5.423  0.1929 -0.6166  0.3995
 4543WAT     H114148   4.527   2.211   5.378 -0.0878 -0.6268  0.2480
 4543WAT     H214149   4.426   2.148   5.471  0.6103 -0.5382  1.0811
 4544WAT      O14150   1.947   0.324   4.255 -0.0603  0.3021 -0.1104
 4544WAT     H114151   1.879   0.364   4.200 -0.2168  0.0160 -0.1291
 4544WAT     H214152   1.911   0.329   4.343 -0.6171 -0.8846 -0.2592
 4545WAT      O14153   1.864   2.132   4.220  0.1391  0.0715  0.5248
 4545WAT     H114154   1.776   2.114   4.254  0.3230 -1.7993  0.1207
 4545WAT     H214155   1.849   2.161   4.130 -0.1092  1.0552  0.8652
 4546WAT      O14156   4.009   2.827   5.735  0.0208  0.5541  0.3804
 4546WAT     H114157   4.030   2.900   5.676 -0.1757 -0.6034 -1.1928
 4546WAT     H214158   3.953   2.770   5.682 -0.5093 -0.3449  1.8537
 4547WAT      O14159   1.921   4.373   0.034 -0.0233  0.6460 -0.0355
 4547WAT     H114160   1.860   4.314  -0.010  0.8881 -0.1602 -0.2502
 4547WAT     H214161   1.979   4.404  -0.035  0.3694  0.6906  0.3055
 4548WAT      O14162   4.334   1.905   2.613  0.2324 -0.1388 -0.3367
 4548WAT     H114163   4.366   1.933   2.528  0.4833 -0.3576 -0.3154
 4548WAT     H214164   4.369   1.817   2.625 -0.8914 -0.6377 -0.5825
 4549WAT      O14165   4.667   2.984   5.951 -0.1722  0.2482 -0.2216
 4549WAT     H114166   4.707   3.058   5.904 -0.7008  0.0706 -0.9740
 4549WAT     H214167   4.579   2.977   5.914 -0.6308  0.1274  0.8529
 4550WAT      O14168   1.259   4.236   5.131 -0.4514  0.0102 -0.3139
 4550WAT     H114169   1.187   4.174   5.146 -1.2987  1.0316 -0.0266
 4550WAT     H214170   1.305   4.202   5.054 -0.3089 -1.4868  0.4000
 4551WAT      O14171   2.293   0.931   4.510 -0.1158 -0.5366  0.1586
 4551WAT     H114172   2.356   0.983   4.560 -0.3665  1.6188 -1.6070
 4551WAT     H214173   2.343   0.900   4.434 -0.8008  0.0477 -0.5495
 4552WAT      O14174   3.298   4.033   4.642 -0.5177 -0.0431 -0.0344
 4552WAT     H114175   3.218   4.045   4.693 -1.0313 -1.6772 -0.3982
 4552WAT     H214176   3.315   4.119   4.604 -1.5563  0.5719  0.8330
 4553WAT      O14177   2.274   2.252   5.336 -0.0878 -0.0530 -0.0225
 4553WAT     H114178   2.308   2.270   5.248  0.7834 -1.1701  0.0651
 4553WAT     H214179   2.217   2.176   5.324  1.4488 -1.3728  0.6264
 4554WAT      O14180   3.873   2.869   5.247  0.5428 -0.2040 -0.8214
 4554WAT     H114181   3.828   2.796   5.203 -2.3275  1.4255 -0.8550
 4554WAT     H214182   3.915   2.917   5.177 -1.0909  0.4475 -1.3967
 4555WAT      O14183   1.788   1.969   3.363 -0.1507 -0.3431 -0.8775
 4555WAT     H114184   1.831   2.035   3.309 -0.5825 -0.1465 -0.9895
 4555WAT     H214185   1.740   2.019   3.429  0.7599 -0.5991 -0.0063
 4556WAT      O14186   2.196   2.795   2.283 -0.5009  0.0775 -0.8197
 4556WAT     H114187   2.106   2.808   2.312 -0.1146 -0.8658  0.9191
 4556WAT     H214188   2.225   2.717   2.329  0.6778 -0.6405 -2.6581
 4557WAT      O14189   1.480   3.044   4.707 -0.2436  0.3064  0.4296
 4557WAT     H114190   1.441   3.028   4.621 -0.1063 -1.5210  0.6865
 4557WAT     H214191   1.559   3.094   4.688 -0.3209  0.0922 -0.4919
 4558WAT      O14192   0.861   1.811   3.314 -0.4508  0.5853  0.0714
 4558WAT     H114193   0.823   1.773   3.235 -1.5719 -0.6444  1.1385
 4558WAT     H214194   0.913   1.885   3.283 -1.4524  0.5919 -1.7301
 4559WAT      O14195   5.920   3.128   4.913  0.3336 -0.5153 -0.3489
 4559WAT     H114196   5.912   3.149   5.007 -1.6335  0.0066 -0.5973
 4559WAT     H214197   5.913   3.032   4.909  4.3574 -1.0225  0.3201
 4560WAT      O14198   3.480   5.322   3.471 -0.3364 -0.1357  0.0742
 4560WAT     H114199   3.391   5.356   3.472  0.3427  1.7505  0.4442
 4560WAT     H214200   3.491   5.281   3.557 -0.7387 -0.1065  0.1422
 4561WAT      O14201   1.505   1.503   3.757 -0.7827  0.1534 -0.3631
 4561WAT     H114202   1.508   1.548   3.842 -0.2526  0.1349 -0.3737
 4561WAT     H214203   1.500   1.574   3.693 -0.6300  0.1802 -0.3450
 4562WAT      O14204   4.065   1.353   4.372  0.1067 -0.1682 -0.4992
 4562WAT     H114205   3.990   1.405   4.344 -0.9126 -1.3943 -0.1463
 4562WAT     H214206   4.116   1.412   4.428 -1.0526  0.4317 -0.0418
 4563WAT      O14207   0.810   0.452   4.244 -0.1780 -0.3345  0.1044
 4563WAT     H114208   0.783   0.540   4.271  0.0982 -0.0300 -0.5961
 4563WAT     H214209   0.875   0.427   4.310  1.2455  0.8145 -0.8066
 4564WAT      O14210   0.747   0.948   1.669  0.6359 -0.7561 -0.1932
 4564WAT     H114211   0.814   0.901   1.619  2.0537  1.1043 -0.1478
 4564WAT     H214212   0.677   0.883   1.683  1.2685 -2.0239 -2.4547
 4565WAT      O14213   3.126   2.915   5.261  0.5138 -0.2801 -0.0922
 4565WAT     H114214   3.133   2.983   5.193  1.9261  0.5452  0.8228
 4565WAT     H214215   3.032   2.901   5.270  0.2633 -1.4793 -3.1975
 4566WAT      O14216   2.645   0.741   3.482  0.0652 -0.2928 -0.2956
 4566WAT     H114217   2.600   0.750   3.397 -1.0680  1.1046  0.4036
 4566WAT     H214218   2.596   0.798   3.541  1.1043 -0.8942  1.2139
 4567WAT      O14219   2.714   2.768   3.639 -0.8332 -0.2786 -0.4245
 4567WAT     H114220   2.681   2.840   3.693  1.1510  0.7718 -0.5340
 4567WAT     H214221   2.635   2.723   3.608 -2.0793  0.7544  1.0959
 4568WAT      O14222   3.331   1.735   2.122  0.4394  0.1347  0.3407
 4568WAT     H114223   3.274   1.689   2.061  1.7375 -1.1364  0.0470
 4568WAT     H214224   3.272   1.793   2.170 -0.9590 -0.5281 -0.5148
 4569WAT      O14225   1.620   1.352   4.134  0.5204  0.3962  0.8057
 4569WAT     H114226   1.534   1.325   4.167  0.8474  0.8132  2.0420
 4569WAT     H214227   1.661   1.271   4.105 -0.1883  0.1621  0.4329
 4570WAT      O14228   3.062   1.554   5.300 -0.1024 -0.4349  0.0418
 4570WAT     H114229   3.124   1.617   5.336  0.9122 -0.5543 -1.4154
 4570WAT     H214230   3.009   1.605   5.238 -0.8601 -0.5294  0.5998
 4571WAT      O14231   2.890   1.872   0.304 -0.5383 -0.6548  0.2555
 4571WAT     H114232   2.815   1.931   0.301  0.1757  0.2526 -0.2376
 4571WAT     H214233   2.853   1.786   0.284 -2.0685 -0.9566  3.7217
 4572WAT      O14234   1.534   3.349   4.318  0.2152 -0.1878  0.5601
 4572WAT     H114235   1.610   3.358   4.375  0.0286  0.3056  0.7331
 4572WAT     H214236   1.484   3.429   4.331 -1.3621 -1.3006  1.9598
 4573WAT      O14237   3.793   3.102   4.091  0.4273  0.2516 -0.3818
 4573WAT     H114238   3.804   3.042   4.017  1.2974 -0.6938  0.4766
 4573WAT     H214239   3.734   3.170   4.058  1.0953  0.0808 -2.0650
 4574WAT      O14240   3.503   1.733   3.898 -0.1458  0.0529  0.0585
 4574WAT     H114241   3.503   1.803   3.964 -0.9710 -0.6438  0.8252
 4574WAT     H214242   3.484   1.778   3.815 -1.4280  0.6602  0.6582
 4575WAT      O14243   3.147   1.216   3.537  0.1421 -0.1245  0.1185
 4575WAT     H114244   3.214   1.157   3.502 -1.3605 -1.3460 -0.7824
 4575WAT     H214245   3.065   1.186   3.499 -1.0666  0.8567  1.7770
 4576WAT      O14246   0.972   2.498   2.136 -0.0492  0.4206  0.4649
 4576WAT     H114247   0.877   2.483   2.130 -0.0302  0.5588 -0.1954
 4576WAT     H214248   0.998   2.525   2.048  1.1787 -3.0279 -0.4025
 4577WAT      O14249   2.492   2.631   3.583  0.5776  0.7882  0.1411
 4577WAT     H114250   2.397   2.642   3.578  0.5739  0.2401 -1.9556
 4577WAT     H214251   2.506   2.566   3.652 -0.5999  0.5126  0.1290
 4578WAT      O14252   2.198   0.894   2.961 -0.5506  0.5736 -0.3386
 4578WAT     H114253   2.128   0.846   3.005  0.7231 -1.0837 -0.0399
 4578WAT     H214254   2.250   0.931   3.033  1.2728 -1.7614 -0.3394
 4579WAT      O14255   4.247   3.734   5.023  0.0278 -0.1597 -0.4104
 4579WAT     H114256   4.214   3.648   5.050 -0.4761  0.1432 -0.0510
 4579WAT     H214257   4.326   3.747   5.076  0.9060 -1.0008 -1.4582
 4580WAT      O14258   4.308   1.731   2.323 -0.4351  0.1981  0.3703
 4580WAT     H114259   4.215   1.740   2.304 -0.0896  0.6970 -1.2118
 4580WAT     H214260   4.311   1.694   2.412 -2.1088  0.9985  0.7933
 4581WAT      O14261   1.931   3.593   3.847  0.1990  0.0165  0.8749
 4581WAT     H114262   1.917   3.519   3.789  0.9758  0.0910  0.5805
 4581WAT     H214263   1.865   3.657   3.821  1.1886  0.4684 -0.6638
 4582WAT      O14264   1.851   3.081   5.862 -0.0615 -0.2495  0.3251
 4582WAT     H114265   1.816   3.107   5.948 -0.0668 -2.9131  1.2165
 4582WAT     H214266   1.773   3.073   5.806 -0.0529  1.5490  0.0070
 4583WAT      O14267   1.572   0.379   2.454 -0.2692  0.0115  0.1460
 4583WAT     H114268   1.629   0.304   2.435 -0.3143 -0.0248  0.1527
 4583WAT     H214269   1.497   0.368   2.395  0.4521  0.8979 -0.9667
 4584WAT      O14270   4.291   2.100   0.019  0.2141  0.3824  0.4033
 4584WAT     H114271   4.265   2.068  -0.067  0.2190 -0.0126  0.5437
 4584WAT     H214272   4.362   2.162   0.002  0.4941 -0.0044  0.1469
 4585WAT      O14273   2.520   1.783   3.798  0.2751  0.7487 -0.1872
 4585WAT     H114274   2.442   1.799   3.744 -0.2400 -0.5227  0.1374
 4585WAT     H214275   2.490   1.720   3.864  0.4804  3.3075  2.5438
 4586WAT      O14276   4.956   5.748   1.411 -0.0435  0.1468  0.8311
 4586WAT     H114277   4.862   5.764   1.404  0.0364  0.1400 -0.7133
 4586WAT     H214278   4.965   5.653   1.406  0.1203  0.2165 -0.7615
 4587WAT      O14279   4.719   4.391   5.180  0.1608 -0.2201  0.2854
 4587WAT     H114280   4.745   4.422   5.094  0.5693 -0.0758  0.4600
 4587WAT     H214281   4.674   4.465   5.221  3.4149  1.1536  1.7331
 4588WAT      O14282   4.367   3.273   1.779  0.4083  0.1445  1.0086
 4588WAT     H114283   4.431   3.334   1.815 -1.4972  2.6172  0.4594
 4588WAT     H214284   4.282   3.312   1.799 -0.8539 -0.6176 -2.2113
 4589WAT      O14285   2.919   2.975   4.479  0.4123  0.7942  0.1645
 4589WAT     H114286   2.987   2.930   4.430 -0.4819  1.0789 -1.4301
 4589WAT     H214287   2.908   2.924   4.559  0.7240 -0.7384 -0.7321
 4590WAT      O14288   2.256   0.484   1.160 -0.3774 -0.0146  0.6569
 4590WAT     H114289   2.263   0.559   1.220  0.9338 -0.4226  1.0490
 4590WAT     H214290   2.336   0.433   1.176 -1.3789 -1.6727  0.6190
 4591WAT      O14291   0.299   1.381   2.819  0.4458  0.0981 -0.5370
 4591WAT     H114292   0.269   1.422   2.738 -2.3786 -1.2976 -0.3096
 4591WAT     H214293   0.273   1.443   2.888 -0.2789 -0.2675 -0.4744
 4592WAT      O14294   3.486   0.030   4.321  0.2612 -0.3309  0.0018
 4592WAT     H114295   3.463   0.116   4.287  0.5066 -0.6815 -1.0719
 4592WAT     H214296   3.403  -0.006   4.354  0.1791  0.3517  0.5654
 4593WAT      O14297   3.084   4.584   4.506  0.2817 -0.4990  0.2703
 4593WAT     H114298   3.084   4.489   4.518  3.4126 -0.5811  0.3758
 4593WAT     H214299   3.083   4.619   4.595 -4.0369 -0.1798  0.3126
 4594WAT      O14300   3.079   1.804   4.576 -0.8394  0.0151 -0.2155
 4594WAT     H114301   3.094   1.897   4.563 -1.0639  0.1302  0.3372
 4594WAT     H214302   2.991   1.788   4.543 -0.3042 -0.2712 -1.5712
 4595WAT      O14303   1.275   1.727   4.173  0.2578  0.2880 -0.7251
 4595WAT     H114304   1.191   1.767   4.193  0.0370 -1.1855  1.6597
 4595WAT     H214305   1.331   1.799   4.144 -1.5809  1.4053 -1.6366
 4596WAT      O14306   2.853   2.044   1.320 -0.1796  0.2994  0.3366
 4596WAT     H114307   2.844   2.008   1.232 -0.1049 -0.3012  0.5719
 4596WAT     H214308   2.797   1.990   1.374  0.7535 -0.1533  0.8813
 4597WAT      O14309   3.851   4.278   5.107 -0.0267  0.2552 -0.2353
 4597WAT     H114310   3.872   4.312   5.020  1.0414 -1.1348 -0.5506
 4597WAT     H214311   3.934   4.245   5.141 -0.9707 -1.9955  0.0382
 4598WAT      O14312   1.889   2.561   4.329  0.2516  0.3773 -0.1968
 4598WAT     H114313   1.796   2.535   4.325  0.5239 -0.6630  0.0414
 4598WAT     H214314   1.906   2.599   4.243 -0.7707  1.9275  0.2527
 4599WAT      O14315   1.944   1.170   3.188 -0.5475  0.4881  0.2434
 4599WAT     H114316   1.976   1.141   3.102 -0.1481 -2.0675  1.1640
 4599WAT     H214317   1.898   1.252   3.170 -0.0965  0.2656 -2.3284
 4600WAT      O14318   3.133   2.698   3.022 -0.1585  0.0271 -0.3254
 4600WAT     H114319   3.197   2.634   2.990  0.5855  0.7808 -0.4015
 4600WAT     H214320   3.181   2.748   3.089 -1.3406 -0.7881  1.1829
 4601WAT      O14321   3.613   2.716   5.709  0.0761 -0.6828 -0.3560
 4601WAT     H114322   3.553   2.664   5.762  0.0671 -1.3343 -0.9854
 4601WAT     H214323   3.674   2.652   5.672  0.9711 -0.0669  0.0224
 4602WAT      O14324   1.936   1.903   4.094  0.1606  0.2751  0.1431
 4602WAT     H114325   1.927   1.988   4.136  0.5680 -0.0141  0.8269
 4602WAT     H214326   2.017   1.910   4.042  0.5813  0.0715  0.7678
 4603WAT      O14327   1.738   4.452   3.710 -0.1061  0.3352  0.5078
 4603WAT     H114328   1.673   4.429   3.777  1.4834 -0.6027  1.8337
 4603WAT     H214329   1.783   4.528   3.746  0.0580  0.4740  0.0080
 4604WAT      O14330   3.502   1.947   4.632  0.3827  0.4870 -0.0752
 4604WAT     H114331   3.594   1.964   4.612  0.5004  0.6030  0.5357
 4604WAT     H214332   3.461   2.033   4.629 -0.2701  0.1658 -2.9677
 4605WAT      O14333   3.993   2.329   2.059 -0.2297  0.1308  0.1573
 4605WAT     H114334   4.040   2.329   1.976  0.0975 -1.3362  0.3218
 4605WAT     H214335   3.962   2.239   2.069 -1.5472  0.6389  0.9155
 4606WAT      O14336   2.222   2.696   3.641  0.5152  0.2895  0.5808
 4606WAT     H114337   2.179   2.611   3.647  1.7217 -0.3918 -0.1636
 4606WAT     H214338   2.161   2.749   3.588  0.7732 -0.8037 -0.8665
 4607WAT      O14339   4.427   3.604   4.783  0.1787  0.0774  0.1597
 4607WAT     H114340   4.366   3.664   4.826 -2.4943 -1.1433 -1.6586
 4607WAT     H214341   4.429   3.527   4.841 -2.6529 -1.1658 -1.1775
 4608WAT      O14342   0.197   6.034   3.954 -0.3657 -0.5217 -0.5511
 4608WAT     H114343   0.106   6.015   3.930 -0.3982 -1.2003  0.0785
 4608WAT     H214344   0.198   6.128   3.970 -1.3302 -0.7252  0.9367
 4609WAT      O14345   2.003   2.371   1.424  0.4726  0.2530 -0.0502
 4609WAT     H114346   1.980   2.408   1.338 -0.6861  1.3158  0.6939
 4609WAT     H214347   1.985   2.277   1.414 -1.0170  0.5637 -0.5548
 4610WAT      O14348   3.139   1.869   2.252 -0.1469 -0.2004 -0.1593
 4610WAT     H114349   3.052   1.850   2.219 -0.2505  1.4716 -0.9502
 4610WAT     H214350   3.131   1.954   2.296  1.1179  0.1228 -0.4891
 4611WAT      O14351   3.330   2.205   5.795  0.8184 -0.0483  1.0789
 4611WAT     H114352   3.309   2.162   5.878 -2.4101  0.9137  0.9045
 4611WAT     H214353   3.374   2.137   5.744 -1.2598 -2.2015  1.9442
 4612WAT      O14354   2.570   2.069   1.737 -0.5837 -0.4460 -0.2234
 4612WAT     H114355   2.617   2.150   1.714  0.8411 -1.2560 -0.3020
 4612WAT     H214356   2.505   2.059   1.668 -1.6039  1.2582  0.4526
 4613WAT      O14357   2.757   2.159   3.791 -0.0258  0.0398 -0.9652
 4613WAT     H114358   2.838   2.119   3.824 -0.0328  0.6176 -0.1992
 4613WAT     H214359   2.785   2.207   3.713  0.6656  1.3469  0.0427
 4614WAT      O14360   3.441   1.779   5.159  0.0310  0.1188 -0.3374
 4614WAT     H114361   3.432   1.789   5.064 -1.2340 -1.8304 -0.4790
 4614WAT     H214362   3.534   1.766   5.173  0.0086 -1.8105 -1.6133
 4615WAT      O14363   1.723   1.922   3.679 -0.0581  0.3227 -0.6266
 4615WAT     H114364   1.636   1.959   3.692 -0.3539 -0.6038  0.1491
 4615WAT     H214365   1.708   1.845   3.623  0.1083 -0.4209  0.3289
 4616WAT      O14366   1.747   2.110   4.586 -0.5230  0.0385  0.3727
 4616WAT     H114367   1.824   2.056   4.602 -1.3028 -0.3667  3.2811
 4616WAT     H214368   1.774   2.198   4.611 -0.3673  0.3386 -0.7937
 4617WAT      O14369   3.211   3.574   5.747  0.3180 -0.5611 -0.4030
 4617WAT     H114370   3.303   3.551   5.763 -0.2407 -2.6431  0.1798
 4617WAT     H214371   3.166   3.489   5.742 -1.8301  0.4210  0.9453
 4618WAT      O14372   3.904   5.367   5.477 -0.0693  0.3861 -0.2899
 4618WAT     H114373   3.938   5.376   5.566  0.4882 -0.2207 -0.4361
 4618WAT     H214374   3.813   5.337   5.489 -0.0114  0.3466  0.0714
 4619WAT      O14375   2.741   2.489   2.728  0.8797 -0.2809 -0.0887
 4619WAT     H114376   2.815   2.509   2.785  0.5995 -0.4184  0.3314
 4619WAT     H214377   2.672   2.461   2.788  0.4437 -0.0213 -0.4641
 4620WAT      O14378   2.247   3.157   5.557 -0.4050  0.2902 -0.1604
 4620WAT     H114379   2.195   3.205   5.492 -1.1036  1.4025  1.1721
 4620WAT     H214380   2.306   3.223   5.593 -0.2961 -0.2241  0.6060
 4621WAT      O14381   2.920   2.554   2.937  0.2611  0.2510 -0.4567
 4621WAT     H114382   2.864   2.522   3.008 -0.2691  0.9605 -0.5543
 4621WAT     H214383   2.969   2.626   2.977  0.1886  0.4507 -0.7359
 4622WAT      O14384   2.760   2.337   5.575  0.8803 -0.0316 -0.0010
 4622WAT     H114385   2.734   2.347   5.483  2.4174  0.3836 -0.4227
 4622WAT     H214386   2.702   2.397   5.623 -0.5581 -0.9380 -0.5601
 4623WAT      O14387   2.517   1.639   1.458 -0.2601  0.2614  0.1120
 4623WAT     H114388   2.457   1.568   1.434 -1.2126  1.1586 -0.2593
 4623WAT     H214389   2.464   1.696   1.515  0.2355  1.0846 -0.2431
 4624WAT      O14390   4.197   3.308   4.926 -0.3088  0.4057  0.3243
 4624WAT     H114391   4.285   3.345   4.926 -0.1426  0.0163 -0.1530
 4624WAT     H214392   4.210   3.216   4.903 -0.6892 -0.0246  1.7157
 4625WAT      O14393   7.010   2.664   4.754  0.2319 -0.0919  0.0102
 4625WAT     H114394   6.998   2.703   4.841 -0.8671  0.3271 -0.3067
 4625WAT     H214395   6.921   2.642   4.726  0.5731 -0.1893 -1.0275
 4626WAT      O14396   1.787   1.749   2.718  0.3395 -0.9710  0.2999
 4626WAT     H114397   1.693   1.751   2.699  0.1152 -2.0478  1.2008
 4626WAT     H214398   1.818   1.836   2.693 -1.0283 -0.3448  0.6763
 4627WAT      O14399   5.098   2.618   0.787 -0.0735 -0.3549 -0.1032
 4627WAT     H114400   5.134   2.706   0.798 -0.3851 -0.3994  1.5803
 4627WAT     H214401   5.083   2.587   0.877 -0.7984 -1.7791 -0.6834
 4628WAT      O14402   3.731   1.329   2.601  0.2447  0.0248 -0.0282
 4628WAT     H114403   3.662   1.369   2.654  0.8932  0.3982  0.5540
 4628WAT     H214404   3.799   1.305   2.664  0.5277 -0.6009 -0.5583
 4629WAT      O14405   3.295   3.765   0.222  0.4479  0.4694  0.1015
 4629WAT     H114406   3.265   3.838   0.169  3.0597  1.6661  0.1391
 4629WAT     H214407   3.301   3.692   0.161 -0.4068  0.7506 -0.3340
 4630WAT      O14408   3.429   1.821   1.203  0.1778  0.0364 -0.4233
 4630WAT     H114409   3.348   1.771   1.216  0.8657 -1.9592 -2.9350
 4630WAT     H214410   3.499   1.759   1.226  1.0275  0.4704 -1.7263
 4631WAT      O14411   4.076   2.306   3.923 -0.3397  0.5838 -0.9361
 4631WAT     H114412   3.987   2.279   3.899 -0.1642  0.1412 -1.1056
 4631WAT     H214413   4.077   2.302   4.018 -1.1230  2.6072 -0.7835
 4632WAT      O14414   1.881   5.055   1.615 -0.5477  0.3940  0.3429
 4632WAT     H114415   1.878   5.106   1.534 -0.4450  2.4494  1.5549
 4632WAT     H214416   1.974   5.047   1.635 -0.4175 -2.2184 -0.9169
 4633WAT      O14417   4.324   2.474   4.181 -0.3983 -0.2878 -0.4243
 4633WAT     H114418   4.359   2.434   4.261 -1.6734  0.7780  0.7134
 4633WAT     H214419   4.241   2.514   4.208 -0.3621  1.0056 -2.0512
 4634WAT      O14420   2.371   2.207   5.082  0.2669  0.0907  0.5693
 4634WAT     H114421   2.439   2.189   5.017  0.7452  1.2241  0.7391
 4634WAT     H214422   2.310   2.266   5.037 -1.4408 -2.0030 -0.0802
 4635WAT      O14423   3.870   2.254   4.450  0.2146  0.3910  0.6005
 4635WAT     H114424   3.832   2.228   4.366 -1.5408  0.8299  1.2228
 4635WAT     H214425   3.843   2.185   4.510  0.3109  0.7749  1.0861
 4636WAT      O14426   4.030   2.516   0.472  0.0456 -0.1780 -0.2008
 4636WAT     H114427   4.118   2.554   0.476  0.1848 -0.5787  0.7197
 4636WAT     H214428   3.972   2.592   0.463  0.3435  0.2663  1.3259
 4637WAT      O14429   0.541   1.788   5.210 -0.1763 -0.3244 -0.0443
 4637WAT     H114430   0.518   1.852   5.143 -0.9503  0.1520  0.6438
 4637WAT     H214431   0.624   1.750   5.181 -0.1035  0.4366 -0.8550
 4638WAT      O14432   1.787   3.101   4.641 -0.1607  0.1041  0.2367
 4638WAT     H114433   1.818   3.011   4.627  0.1790 -0.0553  1.7538
 4638WAT     H214434   1.803   3.116   4.735 -2.1238  1.0227  0.4621
 4639WAT      O14435   1.839   1.684   4.533  0.0597 -0.3958 -0.5744
 4639WAT     H114436   1.869   1.611   4.587 -1.6152 -0.9841 -0.3664
 4639WAT     H214437   1.880   1.670   4.448  0.4828 -1.0546 -0.2672
 4640WAT      O14438   1.558   2.141   3.396 -0.2329  0.1009 -0.1655
 4640WAT     H114439   1.517   2.171   3.477  1.9273  0.7017  0.7832
 4640WAT     H214440   1.551   2.215   3.336  2.7088  1.7095  1.2732
 4641WAT      O14441   0.440   1.900   2.377 -0.6280 -0.3274 -0.0280
 4641WAT     H114442   0.500   1.830   2.349  0.5729  0.1061  1.3102
 4641WAT     H214443   0.368   1.853   2.420  0.1572 -0.7837  0.8452
 4642WAT      O14444   2.619   2.741   4.557 -0.4148 -0.0114  0.1495
 4642WAT     H114445   2.584   2.655   4.583 -0.8834  0.4398  1.0463
 4642WAT     H214446   2.570   2.804   4.610  0.0647  0.8004 -0.3569
 4643WAT      O14447   4.147   1.657   3.174  0.2732 -0.2157  0.0568
 4643WAT     H114448   4.180   1.603   3.103  3.5897 -0.5058  1.6262
 4643WAT     H214449   4.191   1.742   3.162  1.2648 -0.4140  1.9354
 4644WAT      O14450   1.149   2.472   3.084 -0.3067  0.7529 -0.1947
 4644WAT     H114451   1.097   2.537   3.037 -1.5350  0.0146  0.0706
 4644WAT     H214452   1.084   2.425   3.138  0.9593  1.3354  1.9711
 4645WAT      O14453   2.383   2.165   3.247 -0.8780 -0.2969 -0.0162
 4645WAT     H114454   2.328   2.189   3.172 -0.9973 -1.0974 -0.1893
 4645WAT     H214455   2.345   2.214   3.320 -2.1002 -1.1450 -0.0417
 4646WAT      O14456   3.366   4.053   3.877 -0.0088 -0.5047  0.0908
 4646WAT     H114457   3.316   4.131   3.903 -0.1579 -1.0357  1.4780
 4646WAT     H214458   3.414   4.081   3.798 -1.3264  0.4634 -0.4033
 4647WAT      O14459   3.096   2.392   2.810 -0.1115  0.1539  0.2404
 4647WAT     H114460   3.039   2.454   2.855 -1.1456 -1.2030  0.8970
 4647WAT     H214461   3.067   2.394   2.719 -0.3375  0.4308  0.3183
 4648WAT      O14462   3.563   2.495   2.504  0.0797  0.3025 -0.0292
 4648WAT     H114463   3.614   2.574   2.519 -0.0723  0.2099  1.0488
 4648WAT     H214464   3.484   2.526   2.459 -0.8506  1.0659  2.0232
 4649WAT      O14465   1.960   2.204   3.294  0.0662  0.7457 -0.0610
 4649WAT     H114466   1.879   2.255   3.297 -2.6098 -2.8850 -1.6143
 4649WAT     H214467   1.993   2.217   3.205  0.2314  0.9267  0.0270
 4650WAT      O14468   3.918   2.125   2.893  0.4148 -0.5936 -0.4565
 4650WAT     H114469   3.963   2.050   2.853  0.4381 -0.6536 -0.3173
 4650WAT     H214470   3.893   2.180   2.818  0.5601 -0.6486 -0.5463
 4651WAT      O14471   4.829   5.089   5.432 -0.1243 -0.5135  0.0865
 4651WAT     H114472   4.777   5.059   5.357  2.2773  0.6837 -2.2596
 4651WAT     H214473   4.798   5.178   5.448 -0.1719 -0.5194  0.0311
 4652WAT      O14474   4.421   2.152   2.705  0.0983  0.4692  0.0430
 4652WAT     H114475   4.488   2.189   2.648  0.1553  0.1055 -0.1274
 4652WAT     H214476   4.433   2.058   2.699 -1.3096  0.3329 -1.0606
 4653WAT      O14477   3.524   2.538   3.408  0.0615  0.0323 -0.3345
 4653WAT     H114478   3.579   2.599   3.357 -0.3180  0.1325 -0.6301
 4653WAT     H214479   3.436   2.553   3.374 -0.4672  1.2251  1.4366
 4654WAT      O14480   3.875   2.718   2.801 -0.3986 -0.2586 -0.1053
 4654WAT     H114481   3.884   2.623   2.798 -1.0313 -0.4049  1.3443
 4654WAT     H214482   3.945   2.747   2.860  0.5231  0.3146 -1.4528
 4655WAT      O14483   2.988   2.440   4.965  0.3403 -0.2829 -0.0398
 4655WAT     H114484   3.052   2.511   4.973 -0.2696  0.1843  0.9236
 4655WAT     H214485   2.942   2.439   5.049 -1.5801  0.0382 -1.0161
 4656WAT      O14486   4.880   2.643   0.378 -0.0386 -0.0319 -0.2148
 4656WAT     H114487   4.811   2.670   0.438 -0.9878 -3.8581  0.6930
 4656WAT     H214488   4.833   2.600   0.305  1.2178 -2.5972  0.3614
 4657WAT      O14489   1.324   0.759   3.588 -0.0307  0.3082 -0.0478
 4657WAT     H114490   1.249   0.785   3.641  0.7412  0.6628  0.8953
 4657WAT     H214491   1.388   0.829   3.601  0.0610  0.6017 -1.7511
 4658WAT      O14492   3.619   0.272   3.480  0.4900 -0.0072  0.0873
 4658WAT     H114493   3.591   0.214   3.551  2.0838 -1.2539 -0.2352
 4658WAT     H214494   3.714   0.279   3.492  0.4722  1.7045 -0.5366
 4659WAT      O14495   3.198   1.801   3.360  0.1241  0.6182  0.0876
 4659WAT     H114496   3.136   1.865   3.393  0.2972  0.4294  0.7865
 4659WAT     H214497   3.284   1.835   3.387  0.1810 -0.2114  1.0083
 4660WAT      O14498   2.181   1.959   3.949 -0.3522  0.1699  0.0139
 4660WAT     H114499   2.185   2.004   3.865  0.0295  0.5978  0.2562
 4660WAT     H214500   2.235   1.881   3.937 -3.0219 -1.6499 -1.2239
 4661WAT      O14501   2.807   1.726   4.415 -0.1385  0.1510  0.8451
 4661WAT     H114502   2.829   1.658   4.351  0.7956 -0.3143  1.6299
 4661WAT     H214503   2.725   1.764   4.383  0.4168  0.0783 -0.7184
 4662WAT      O14504   1.061   2.940   1.389 -0.5535 -0.5272 -0.1285
 4662WAT     H114505   1.090   2.957   1.478 -2.8868 -1.8334  0.9952
 4662WAT     H214506   1.004   3.014   1.368  0.7827  0.3023 -0.9969
 4663WAT      O14507   2.703   5.412   1.761  0.4873 -0.1340  0.0753
 4663WAT     H114508   2.708   5.318   1.747 -1.6180 -0.1183 -1.1453
 4663WAT     H214509   2.691   5.422   1.855 -3.0516 -1.3846 -0.1106
 4664WAT      O14510   2.791   0.844   2.410 -1.1810 -0.3581 -0.1836
 4664WAT     H114511   2.764   0.906   2.479 -0.7578  0.1419 -0.4678
 4664WAT     H214512   2.803   0.898   2.332  1.4173 -0.4158  0.0966
 4665WAT      O14513   2.071   0.233   5.691  0.0858 -0.4145 -0.0591
 4665WAT     H114514   2.012   0.181   5.745 -0.2991 -0.5407 -0.5869
 4665WAT     H214515   2.017   0.307   5.661  0.2444 -0.4323 -0.3956
 4666WAT      O14516   4.300   0.043   3.840 -0.7313 -0.3271 -0.3704
 4666WAT     H114517   4.265   0.110   3.781  0.2688 -0.4019 -1.0800
 4666WAT     H214518   4.294   0.082   3.927 -1.2379  0.2187 -0.6413
 4667WAT      O14519   5.303   1.986   5.016 -0.1720 -0.1930 -0.4865
 4667WAT     H114520   5.222   1.941   4.991 -0.7178  0.7085 -0.3672
 4667WAT     H214521   5.301   1.989   5.111 -0.8131  1.2682 -0.5244
 4668WAT      O14522   3.156   0.497   2.121  0.5522 -0.1976  0.5711
 4668WAT     H114523   3.168   0.591   2.129 -1.7014  0.1668  0.3918
 4668WAT     H214524   3.175   0.462   2.208  1.1393  0.4592  0.7077
 4669WAT      O14525   3.909   1.265   2.806 -0.2986 -0.0484  0.1710
 4669WAT     H114526   3.936   1.173   2.809  1.4565  0.4437  0.7863
 4669WAT     H214527   3.916   1.294   2.897  0.2666  0.9681 -0.1825
 4670WAT      O14528   2.760   2.455   3.165 -0.5289 -0.0363  0.2307
 4670WAT     H114529   2.728   2.365   3.171  0.8000 -0.7028 -1.6180
 4670WAT     H214530   2.681   2.509   3.168 -1.6536 -1.4480 -1.4329
 4671WAT      O14531   2.614   2.570   3.955  0.1569  0.8520  0.3003
 4671WAT     H114532   2.642   2.551   4.044 -1.4196  0.3237  0.7215
 4671WAT     H214533   2.531   2.522   3.945 -0.4622  2.0938 -0.9278
 4672WAT      O14534   2.406   4.263   5.277  0.7458  0.1812 -0.4178
 4672WAT     H114535   2.319   4.288   5.247  0.2858  1.6008  1.8994
 4672WAT     H214536   2.402   4.167   5.284 -1.0329  0.2909  0.7185
 4673WAT      O14537   0.339   1.192   3.966 -0.2886  0.0051 -0.2278
 4673WAT     H114538   0.364   1.214   4.056  0.4995 -0.4189 -0.3281
 4673WAT     H214539   0.251   1.156   3.974 -1.8819  3.5006 -0.1202
 4674WAT      O14540   4.792   1.694   4.888  0.3948 -0.0177 -0.1773
 4674WAT     H114541   4.748   1.754   4.829 -0.2817 -0.1580  0.1800
 4674WAT     H214542   4.812   1.748   4.966 -1.5930 -0.6038  0.7886
 4675WAT      O14543   4.002   3.119   4.750 -0.2204  0.2300  0.4766
 4675WAT     H114544   3.936   3.070   4.701  0.1671 -0.0969  0.2678
 4675WAT     H214545   4.012   3.200   4.700  1.0879 -0.6265 -0.7623
 4676WAT      O14546   3.594   3.537   3.998 -0.2880  0.0927  1.0580
 4676WAT     H114547   3.515   3.587   3.976 -0.2083 -0.7925 -1.5451
 4676WAT     H214548   3.663   3.603   4.003 -0.3143  0.4436 -1.6702
 4677WAT      O14549   4.408   5.729   4.606 -0.0630 -0.3117  0.3645
 4677WAT     H114550   4.318   5.761   4.612  0.3101  0.8014  0.3079
 4677WAT     H214551   4.450   5.787   4.543  0.3829 -1.6004 -0.5745
 4678WAT      O14552   2.255   2.915   5.113 -0.0165  0.5082 -0.0193
 4678WAT     H114553   2.239   2.873   5.028  0.7791 -0.1989  0.1633
 4678WAT     H214554   2.292   3.000   5.090  2.7581 -0.6975 -0.4520
 4679WAT      O14555   3.379   2.958   0.543  0.4645 -0.0764 -0.5863
 4679WAT     H114556   3.419   2.871   0.549  0.8517  0.1609  0.5539
 4679WAT     H214557   3.405   3.002   0.624  1.4029  1.5828 -1.7071
 4680WAT      O14558   4.814   0.456   4.215  0.2910  0.0279 -0.3320
 4680WAT     H114559   4.745   0.505   4.171 -2.1221 -1.9487  1.0492
 4680WAT     H214560   4.814   0.491   4.304 -0.0073 -1.0084  0.0851
 4681WAT      O14561   2.642   2.777   4.271 -0.3605  0.5814 -0.3399
 4681WAT     H114562   2.681   2.750   4.353 -2.6941 -0.5649  0.4815
 4681WAT     H214563   2.650   2.701   4.214 -0.7119  0.5989 -0.4164
 4682WAT      O14564   1.824   2.419   4.655  0.1293  0.1176  0.3388
 4682WAT     H114565   1.911   2.453   4.637 -0.0745 -0.0820 -1.2565
 4682WAT     H214566   1.765   2.489   4.628 -0.2118  0.1326  1.1116
 4683WAT      O14567   1.889   2.110   3.743 -0.4771 -0.2458 -0.0981
 4683WAT     H114568   1.833   2.033   3.732 -1.6078  0.6733 -1.0686
 4683WAT     H214569   1.978   2.076   3.735 -0.8740 -1.7154  1.3084
 4684WAT      O14570   4.844   0.514   4.868 -0.3069  0.0554 -0.5386
 4684WAT     H114571   4.826   0.596   4.915 -0.1000 -1.0885  1.6765
 4684WAT     H214572   4.767   0.460   4.885  0.7181 -1.1761  0.3744
 4685WAT      O14573   3.489   2.548   4.516  0.2939  0.3402  0.1294
 4685WAT     H114574   3.582   2.539   4.536 -0.1070 -0.2999  1.9408
 4685WAT     H214575   3.482   2.632   4.471  1.8213  0.0562 -0.6999
 4686WAT      O14576   2.074   5.899   4.023  0.8511  0.6540 -0.2043
 4686WAT     H114577   2.058   5.981   4.071 -0.5327 -0.2744  0.9918
 4686WAT     H214578   2.163   5.874   4.048  0.1523  0.1705  2.0224
 4687WAT      O14579   2.419   0.723   2.491  0.3312  0.1369 -0.3582
 4687WAT     H114580   2.507   0.759   2.475  0.6497 -0.4744 -0.0085
 4687WAT     H214581   2.435   0.633   2.518 -0.3947  0.1231  0.0238
 4688WAT      O14582   5.049   3.468   5.927  0.2319 -0.2952 -0.3398
 4688WAT     H114583   4.973   3.525   5.913  0.0867 -0.3359  0.2775
 4688WAT     H214584   5.104   3.483   5.850  0.6733  1.4250  0.2667
 4689WAT      O14585   3.151   2.255   3.526  0.0745 -0.4056 -0.1013
 4689WAT     H114586   3.169   2.289   3.438  0.8282  0.0477  0.2203
 4689WAT     H214587   3.056   2.245   3.528 -0.2130  1.7528 -0.2105
 4690WAT      O14588   4.108   0.616   4.379  0.4711  0.0083 -0.3239
 4690WAT     H114589   4.055   0.538   4.394  1.0373 -0.3283 -0.0711
 4690WAT     H214590   4.141   0.640   4.466 -0.9556  1.4445 -0.1315
 4691WAT      O14591   2.375   0.968   2.301 -0.0102  0.1131 -0.2497
 4691WAT     H114592   2.343   0.894   2.250 -0.5766  0.1972 -0.0237
 4691WAT     H214593   2.296   1.009   2.336  0.3894 -0.5166  1.5022
 4692WAT      O14594   5.301   0.103   3.099  0.1266  0.4110 -0.2837
 4692WAT     H114595   5.231   0.072   3.156 -0.0069  0.8950 -0.1772
 4692WAT     H214596   5.365   0.143   3.158  1.0415 -1.0127 -0.2680
 4693WAT      O14597   1.205   1.506   3.976  0.4761 -0.6061 -0.0878
 4693WAT     H114598   1.211   1.596   4.007  0.2498  0.1292 -2.0176
 4693WAT     H214599   1.117   1.478   4.000 -0.1092  0.3471 -0.9989
 4694WAT      O14600   3.434   2.830   4.461 -0.2135  0.2627  0.1519
 4694WAT     H114601   3.513   2.858   4.505 -0.8268  0.1055  1.4022
 4694WAT     H214602   3.378   2.908   4.459 -0.4886  0.0764  0.3668
 4695WAT      O14603   1.337   1.320   4.133 -0.0269  0.5977 -0.1905
 4695WAT     H114604   1.287   1.372   4.070  0.2204 -1.3439 -2.1132
 4695WAT     H214605   1.318   1.229   4.110  1.1227 -0.2014  1.7373
 4696WAT      O14606   3.040   1.332   2.885 -0.1911  0.2036  0.6519
 4696WAT     H114607   2.996   1.281   2.817 -1.0895  0.9392  0.6668
 4696WAT     H214608   3.028   1.281   2.965 -0.0774 -0.1210  0.4665
 4697WAT      O14609   2.841   1.434   5.896 -0.1844  0.3061  0.4176
 4697WAT     H114610   2.759   1.481   5.877 -0.8344 -0.7298  0.5433
 4697WAT     H214611   2.835   1.355   5.843  1.0077  0.4654  0.0171
 4698WAT      O14612   4.947   5.128   4.925  0.1258  0.6637  0.0386
 4698WAT     H114613   4.999   5.075   4.985  0.4548  0.8305 -0.0934
 4698WAT     H214614   4.858   5.092   4.931  0.5174 -0.5209 -0.7365
 4699WAT      O14615   2.706   2.418   3.457 -0.0253 -0.2420  0.8150
 4699WAT     H114616   2.765   2.470   3.512  0.5073  0.8776 -0.7484
 4699WAT     H214617   2.649   2.483   3.415  0.0151 -0.9940 -0.4481
 4700WAT      O14618   3.489   2.892   2.683  0.3751  0.2657 -0.1008
 4700WAT     H114619   3.524   2.864   2.768  0.9670  3.8637  1.0111
 4700WAT     H214620   3.529   2.832   2.620  2.2782 -0.7261  1.9072
 4701WAT      O14621   2.575   3.616   1.608 -0.4657  0.1813 -0.0391
 4701WAT     H114622   2.653   3.654   1.648 -0.1171  0.1878 -0.7040
 4701WAT     H214623   2.548   3.546   1.668  0.7079 -0.5653 -0.3489
 4702WAT      O14624   1.972   2.089   1.426 -0.2033 -0.2342  0.0744
 4702WAT     H114625   2.034   2.063   1.494  0.1845 -1.1683 -0.6124
 4702WAT     H214626   1.906   2.019   1.426  0.4450 -0.8901 -1.2967
 4703WAT      O14627   2.461   2.220   2.685  0.1342  0.2082 -0.0671
 4703WAT     H114628   2.492   2.290   2.743  0.1216 -0.0753  0.2886
 4703WAT     H214629   2.512   2.230   2.605  0.2742  0.5022  0.0593
 4704WAT      O14630   1.150   0.233   2.090 -0.1548 -0.2455  0.1096
 4704WAT     H114631   1.160   0.173   2.163  0.4147 -1.4987 -0.9461
 4704WAT     H214632   1.236   0.234   2.047  0.2408  2.3214  0.7881
 4705WAT      O14633   3.364   0.235   5.877 -0.7660  0.4299 -0.0328
 4705WAT     H114634   3.366   0.293   5.954  0.9753 -0.2552  0.4995
 4705WAT     H214635   3.427   0.166   5.898 -1.3259 -0.5686 -1.4933
 4706WAT      O14636   3.414   3.997   2.048  0.2244  0.3125 -0.4613
 4706WAT     H114637   3.354   4.015   1.977 -0.2753  0.3801 -0.0286
 4706WAT     H214638   3.410   4.076   2.103 -0.1080 -0.1200  0.1404
 4707WAT      O14639   3.105   3.365   1.594  0.3394  0.6090 -0.6509
 4707WAT     H114640   3.187   3.378   1.547  0.2816  0.3468 -0.8278
 4707WAT     H214641   3.057   3.301   1.541  0.3996  0.0755 -0.0798
 4708WAT      O14642   2.218   2.122   3.718 -0.2098  0.2213  0.0257
 4708WAT     H114643   2.312   2.139   3.720  0.2203 -1.6975 -1.1708
 4708WAT     H214644   2.203   2.078   3.634 -1.6853 -1.9968  1.3347
 4709WAT      O14645   2.989   2.437   3.344 -0.2205 -0.6061  1.0163
 4709WAT     H114646   2.983   2.486   3.425  1.0228 -0.2225  0.8882
 4709WAT     H214647   2.918   2.471   3.290  0.3589  0.7565  1.0896
 4710WAT      O14648   3.068   2.480   0.258 -0.0961  0.1559  0.5047
 4710WAT     H114649   3.134   2.504   0.323  0.8231  1.9238 -0.9928
 4710WAT     H214650   3.004   2.427   0.307  0.2462  1.8493  2.9657
 4711WAT      O14651   4.308   5.421   0.039  0.3148  0.1051 -0.0863
 4711WAT     H114652   4.354   5.492   0.084 -1.8277  1.2066  0.5211
 4711WAT     H214653   4.249   5.386   0.106 -0.9625 -0.0643 -1.2623
 4712WAT      O14654   3.145   2.377   4.176 -0.1768  0.1353 -0.0430
 4712WAT     H114655   3.187   2.415   4.252  0.2451 -0.0092 -0.1997
 4712WAT     H214656   3.208   2.388   4.105  0.0104 -0.9465 -0.0690
 4713WAT      O14657   2.645   2.200   3.153 -0.1298 -0.8179  0.3774
 4713WAT     H114658   2.691   2.137   3.207 -0.5663 -1.6303 -0.1867
 4713WAT     H214659   2.553   2.192   3.180 -0.4197 -1.5453 -0.7697
 4714WAT      O14660   4.222   1.860   0.307 -0.2694  0.1500  0.2633
 4714WAT     H114661   4.157   1.906   0.253 -0.8219  0.2142  0.9804
 4714WAT     H214662   4.173   1.825   0.380  0.3037 -0.8369  0.1981
 4715WAT      O14663   4.397   0.642   2.597 -0.7035 -0.3922  0.2587
 4715WAT     H114664   4.338   0.717   2.584 -1.0375 -0.6913  0.0455
 4715WAT     H214665   4.483   0.682   2.611 -1.0716  0.0748  1.2819
 4716WAT      O14666   1.419   1.281   0.884  0.0102  0.1918 -0.5227
 4716WAT     H114667   1.414   1.192   0.919  1.9534  0.6769  1.1805
 4716WAT     H214668   1.357   1.331   0.938  0.5972  0.3080  0.0451
 4717WAT      O14669   2.250   4.849   0.459 -0.1946  0.0585  0.1471
 4717WAT     H114670   2.239   4.782   0.527  1.8628  0.1351  0.6151
 4717WAT     H214671   2.257   4.799   0.378 -0.9141 -0.1367  0.1939
 4718WAT      O14672   4.459   2.305   1.654 -0.1393  0.2897 -0.0827
 4718WAT     H114673   4.426   2.223   1.690  0.1983 -0.1934 -0.8456
 4718WAT     H214674   4.531   2.279   1.598 -0.2971  1.0718 -0.6647
 4719WAT      O14675   2.111   0.381   0.608  0.6856 -0.0596 -0.2799
 4719WAT     H114676   2.185   0.396   0.666 -0.1416 -0.0371  0.8045
 4719WAT     H214677   2.047   0.334   0.662  0.8886 -2.3735 -1.9034
 4720WAT      O14678   3.198   0.242   1.417  0.3199  0.3917  0.0486
 4720WAT     H114679   3.208   0.271   1.326  1.0387 -0.2913 -0.0934
 4720WAT     H214680   3.104   0.229   1.427  0.0987  1.5990 -0.2396
 4721WAT      O14681   1.852   1.069   0.486  0.6519 -0.2805 -0.0530
 4721WAT     H114682   1.911   1.125   0.435  3.1896 -2.0012  0.7708
 4721WAT     H214683   1.885   0.980   0.471 -2.0670 -1.4096  0.1462
 4722WAT      O14684   2.891   2.442   3.854  0.1439 -0.1502  0.0731
 4722WAT     H114685   2.911   2.374   3.918 -0.1157  0.2576  0.5916
 4722WAT     H214686   2.816   2.489   3.891 -0.3367 -0.2309 -0.7697
 4723WAT      O14687   4.313   1.391   1.548 -0.1159  0.4198  0.5600
 4723WAT     H114688   4.326   1.479   1.583  1.3287  0.3615  0.2346
 4723WAT     H214689   4.358   1.333   1.610  0.8789  0.1486 -0.3769
 4724WAT      O14690   1.878   1.975   2.250  0.0829 -0.5091 -0.1376
 4724WAT     H114691   1.938   2.037   2.291  1.2568 -1.0589 -0.9553
 4724WAT     H214692   1.922   1.890   2.259 -0.3140 -0.8434 -1.2235
 4725WAT      O14693   3.586   2.121   1.906 -0.1172  0.0243  0.6073
 4725WAT     H114694   3.493   2.142   1.913  0.1392  2.0725 -1.0649
 4725WAT     H214695   3.612   2.155   1.820  2.1485 -0.6549  0.9467
 4726WAT      O14696   6.653   2.068   2.440  0.2224  0.0494  0.5042
 4726WAT     H114697   6.616   2.004   2.502  0.0379 -0.4989 -0.1622
 4726WAT     H214698   6.586   2.076   2.372 -0.3526  1.9754  1.2518
 4727WAT      O14699   2.747   3.406   2.451  0.1611  0.2507 -0.2672
 4727WAT     H114700   2.778   3.471   2.387  1.0388 -0.8979 -1.0533
 4727WAT     H214701   2.665   3.373   2.414  0.1879  0.2605 -0.3368
 4728WAT      O14702   2.521   1.773   2.355 -0.0323 -0.3839  0.0321
 4728WAT     H114703   2.523   1.697   2.414 -3.2027 -0.9189 -0.3473
 4728WAT     H214704   2.552   1.739   2.271  0.1132 -0.8341  0.2608
 4729WAT      O14705   3.571   1.594   1.483  0.1446  0.3666 -0.1021
 4729WAT     H114706   3.554   1.675   1.531 -0.5483  0.2397 -0.1214
 4729WAT     H214707   3.664   1.599   1.460 -0.1165  1.6640 -1.0225
 4730WAT      O14708   2.726   1.792   3.146 -0.3764 -0.6241 -0.0589
 4730WAT     H114709   2.758   1.873   3.187 -0.1453 -0.3876 -0.6897
 4730WAT     H214710   2.636   1.813   3.120 -0.3264 -0.5798 -0.1960
 4731WAT      O14711   3.184   1.860   0.819 -0.1814  0.0035  0.0594
 4731WAT     H114712   3.271   1.865   0.779 -0.4066  0.8531 -0.3370
 4731WAT     H214713   3.196   1.804   0.895  0.6006 -0.3256 -0.2950
 4732WAT      O14714   3.291   1.120   3.059  0.0411  0.0959 -0.0089
 4732WAT     H114715   3.216   1.109   3.118  0.3721 -0.8351  0.2555
 4732WAT     H214716   3.296   1.214   3.044  0.7519  0.5288  2.5007
 4733WAT      O14717   3.007   2.467   1.459 -0.4748  0.2924 -0.0445
 4733WAT     H114718   2.993   2.377   1.488  0.2402  0.4215  0.7294
 4733WAT     H214719   2.988   2.465   1.365 -2.7496 -0.1617  0.3518
 4734WAT      O14720   3.025   1.951   3.536  0.0849  0.1331 -0.0270
 4734WAT     H114721   3.035   2.034   3.581  0.7029 -0.1373  0.3408
 4734WAT     H214722   3.010   1.887   3.606  1.5451 -0.3741 -0.1485
 4735WAT      O14723   2.207   1.706   0.628  0.6614  0.1123  0.6988
 4735WAT     H114724   2.248   1.759   0.696  1.2855  1.7012 -0.8415
 4735WAT     H214725   2.117   1.739   0.623  0.4076 -0.4840  1.2053
 4736WAT      O14726   2.514   2.589   2.079  0.4118  0.4612  0.1865
 4736WAT     H114727   2.419   2.589   2.089  0.3950  1.8401  0.2010
 4736WAT     H214728   2.530   2.533   2.003 -0.4074  0.2127  0.1850
 4737WAT      O14729   2.880   2.582   2.324  0.0710  0.2296  0.3688
 4737WAT     H114730   2.961   2.618   2.359  1.4487 -1.7635 -0.5736
 4737WAT     H214731   2.858   2.640   2.250  1.4820 -0.0248 -0.2828
 4738WAT      O14732   1.735   1.579   0.004  0.3956  0.0149  0.3991
 4738WAT     H114733   1.641   1.586   0.024  0.2662 -0.2157 -0.1039
 4738WAT     H214734   1.770   1.524   0.073  0.4328  1.2405  1.3910
 4739WAT      O14735   2.038   3.303   1.060 -0.1029 -0.8225  0.0678
 4739WAT     H114736   2.108   3.302   0.995  0.2098  0.8109  0.3310
 4739WAT     H214737   1.962   3.338   1.012 -0.1209 -0.4851  0.3385
 4740WAT      O14738   1.357   0.729   1.746  0.5210 -0.2692  0.1184
 4740WAT     H114739   1.283   0.669   1.754  1.1716 -1.0507  0.3939
 4740WAT     H214740   1.431   0.673   1.725  0.8876  0.5953 -0.9900
 4741WAT      O14741   2.218   0.151   0.865 -0.2706  0.5398  0.9434
 4741WAT     H114742   2.306   0.187   0.854 -0.8165  1.4380 -1.1632
 4741WAT     H214743   2.160   0.225   0.845 -1.4446 -0.7757 -0.8750
 4742WAT      O14744   2.051   0.985   1.182  0.3234  0.5359 -0.2683
 4742WAT     H114745   1.988   1.002   1.252  0.1813  0.2504 -0.3268
 4742WAT     H214746   2.004   0.929   1.120  1.0312 -0.7406  0.3048
 4743WAT      O14747   4.079   2.916   1.878 -0.0664 -0.1583 -0.2467
 4743WAT     H114748   4.139   2.862   1.930  0.2264 -0.9598 -1.3723
 4743WAT     H214749   4.057   2.989   1.935  2.1995  0.3156  0.1265
 4744WAT      O14750   2.359   2.352   2.237  0.2997  0.1149 -0.3031
 4744WAT     H114751   2.383   2.307   2.156  0.8571 -0.5129  0.1920
 4744WAT     H214752   2.442   2.360   2.285 -0.4216 -2.1592  1.4990
 4745WAT      O14753   0.263   2.189   1.009  0.0900  0.0478  0.4882
 4745WAT     H114754   0.313   2.109   0.993  2.2530  1.3617  0.3496
 4745WAT     H214755   0.298   2.225   1.090 -0.6756  1.0006  0.4225
 4746WAT      O14756   2.552   2.903   2.591  0.3528  0.7708 -0.0607
 4746WAT     H114757   2.626   2.961   2.608 -0.0605  0.7930  1.8352
 4746WAT     H214758   2.591   2.815   2.589  0.2787  0.5725  2.8016
 4747WAT      O14759   2.696   3.175   5.649 -0.2746 -0.1784  0.0005
 4747WAT     H114760   2.722   3.142   5.563  1.5831  0.1027  0.4154
 4747WAT     H214761   2.729   3.109   5.710  1.3706  1.2067  0.6793
 4748WAT      O14762   2.517   2.836   0.923  0.2168 -0.0265 -0.7897
 4748WAT     H114763   2.601   2.847   0.878  0.1068  1.0964 -0.7447
 4748WAT     H214764   2.452   2.861   0.858 -0.0328 -0.0139 -0.5332
 4749WAT      O14765   2.414   4.527   4.937  0.1075  0.1192  0.7353
 4749WAT     H114766   2.497   4.483   4.916  0.6069  0.5248  1.7666
 4749WAT     H214767   2.421   4.613   4.895  0.6050  0.4883  1.5421
 4750WAT      O14768   1.961   4.337   3.125  0.1278 -0.5186  0.3374
 4750WAT     H114769   1.899   4.305   3.190 -0.8973  1.0851  0.2079
 4750WAT     H214770   1.972   4.430   3.146  1.2813 -0.4204 -0.5945
 4751WAT      O14771   4.343   2.711   2.373 -0.6542  0.3665  0.2898
 4751WAT     H114772   4.410   2.775   2.347 -1.4322  0.6821 -1.0542
 4751WAT     H214773   4.392   2.632   2.395  0.1342  0.2177 -1.8025
 4752WAT      O14774   7.100   0.474   2.664 -0.1122 -0.5882  0.0700
 4752WAT     H114775   7.008   0.492   2.682  0.5335  1.4495  1.6865
 4752WAT     H214776   7.146   0.555   2.686  1.9504 -1.0737 -1.9746
 4753WAT      O14777   1.976   1.314   4.132  0.0257 -0.0863  0.8265
 4753WAT     H114778   2.013   1.347   4.050 -3.9141  2.0988 -0.3611
 4753WAT     H214779   1.945   1.226   4.110 -0.7475  0.3785 -0.0303
 4754WAT      O14780   2.597   2.928   1.763 -0.2469  0.4563 -0.4709
 4754WAT     H114781   2.677   2.958   1.807  1.2762 -1.3265 -1.8530
 4754WAT     H214782   2.531   2.993   1.787  1.4609  1.7155  1.1641
 4755WAT      O14783   2.721   0.300   0.746  0.1049 -0.1145 -0.8206
 4755WAT     H114784   2.751   0.379   0.789 -2.0787  0.3721 -0.0632
 4755WAT     H214785   2.796   0.240   0.749  1.5600  1.6447 -0.7888
 4756WAT      O14786   3.704   2.167   3.339  0.1854  0.3445  0.6339
 4756WAT     H114787   3.721   2.223   3.264  0.7137 -1.9172 -1.0329
 4756WAT     H214788   3.766   2.197   3.406  1.7891  0.5388 -0.8739
 4757WAT      O14789   2.739   3.202   2.120  0.2810  0.2047  0.0501
 4757WAT     H114790   2.776   3.136   2.179  0.6707  0.5649  0.2133
 4757WAT     H214791   2.661   3.233   2.166  0.1828 -0.0327  0.0442
 4758WAT      O14792   3.226   1.678   3.134 -0.3892  0.2950 -0.1187
 4758WAT     H114793   3.206   1.706   3.224  0.7786 -0.7795  0.4995
 4758WAT     H214794   3.304   1.729   3.110 -0.6479  0.5165 -0.4998
 4759WAT      O14795   1.285   0.331   1.658 -0.1749 -0.1583 -0.7552
 4759WAT     H114796   1.239   0.390   1.718 -0.3051  0.0465 -1.0525
 4759WAT     H214797   1.329   0.390   1.596 -1.1441 -0.3774 -1.6792
 4760WAT      O14798   2.393   1.577   5.782  0.1387 -0.0325  0.0585
 4760WAT     H114799   2.364   1.493   5.816 -0.5863 -0.6194 -1.8721
 4760WAT     H214800   2.438   1.556   5.700 -2.1116  1.5721 -1.7111
 4761WAT      O14801   1.502   2.363   3.201  0.5082  0.5506  0.3361
 4761WAT     H114802   1.469   2.305   3.132  2.1476  1.4269 -1.2688
 4761WAT     H214803   1.423   2.403   3.238 -0.4414 -0.2213 -0.7780
 4762WAT      O14804   2.678   1.727   1.707  0.4115  0.8006  0.5129
 4762WAT     H114805   2.586   1.717   1.685  0.5395  2.0375 -0.6674
 4762WAT     H214806   2.690   1.674   1.786 -0.8933 -0.8182 -0.3360
 4763WAT      O14807   1.269   2.938   2.899  0.2541 -0.5878 -0.1332
 4763WAT     H114808   1.193   2.888   2.928 -0.4099 -0.5138 -1.6266
 4763WAT     H214809   1.300   2.982   2.977 -1.6113 -0.1516  0.4110
 4764WAT      O14810   4.066   1.329   3.637 -0.0710  0.2705 -0.5978
 4764WAT     H114811   3.987   1.276   3.638 -0.2795  0.4459  2.6639
 4764WAT     H214812   4.137   1.268   3.657  0.0654  0.7507  0.4187
 4765WAT      O14813   2.003   6.103   1.851 -0.2222 -0.0813  0.2561
 4765WAT     H114814   2.090   6.143   1.852 -0.2233 -0.0550 -0.5061
 4765WAT     H214815   1.978   6.100   1.759 -1.3264  0.5547  0.5130
 4766WAT      O14816   3.018   1.844   1.474  0.0576  0.4438  0.1691
 4766WAT     H114817   2.968   1.887   1.405 -1.6350  0.5674  1.4161
 4766WAT     H214818   3.086   1.795   1.427 -0.4270  1.2997 -1.5047
 4767WAT      O14819   1.888   1.621   0.375 -0.4795  0.0201  0.4098
 4767WAT     H114820   1.809   1.646   0.327 -0.0612 -0.3121 -0.4957
 4767WAT     H214821   1.873   1.651   0.464 -1.5323  0.1564  0.2017
 4768WAT      O14822   3.255   1.671   4.409 -0.3575 -0.1880 -0.2064
 4768WAT     H114823   3.181   1.722   4.443 -0.0561  1.1497 -1.4780
 4768WAT     H214824   3.215   1.593   4.372 -1.1484  0.4784 -0.7941
 4769WAT      O14825   2.738   0.076   2.366 -0.0173 -0.5933 -0.2354
 4769WAT     H114826   2.789  -0.003   2.384 -1.3619 -1.2158  1.0611
 4769WAT     H214827   2.651   0.044   2.342 -0.9536  0.4758  1.5236
 4770WAT      O14828   2.388   1.778   1.681  0.3266  0.4759 -0.0014
 4770WAT     H114829   2.302   1.816   1.661  0.5117  0.5213 -0.7378
 4770WAT     H214830   2.382   1.753   1.774 -1.0021 -0.8439 -0.3963
 4771WAT      O14831   4.792   2.437   0.911 -0.3628 -0.7768 -0.2924
 4771WAT     H114832   4.702   2.433   0.942 -0.0289  0.5469  0.9432
 4771WAT     H214833   4.785   2.443   0.816 -1.5617 -0.6739 -0.2043
 4772WAT      O14834   2.078   0.957   5.439 -0.3566 -0.0268 -0.4194
 4772WAT     H114835   2.161   0.987   5.477 -0.2567  0.5357 -1.0853
 4772WAT     H214836   2.014   1.024   5.465 -0.2467  0.4732 -1.4135
 4773WAT      O14837   4.022   2.085   1.404  0.4128 -0.1506  0.4275
 4773WAT     H114838   3.996   2.079   1.312  2.1447  2.2999 -0.3146
 4773WAT     H214839   4.103   2.034   1.409  0.7285  0.3370  0.3859
 4774WAT      O14840   0.532   1.693   3.105  0.0546 -0.5687  0.3416
 4774WAT     H114841   0.625   1.712   3.095  0.1202 -0.8392  0.4317
 4774WAT     H214842   0.527   1.598   3.113 -0.4745 -0.8476 -2.3758
 4775WAT      O14843   2.108   1.939   2.705  0.4109 -0.2311 -0.2002
 4775WAT     H114844   2.118   1.974   2.794  1.0201  0.3590 -0.4957
 4775WAT     H214845   2.025   1.975   2.675  0.5552  0.1664 -0.1360
 4776WAT      O14846   0.655   1.132   2.274 -0.5999 -0.4436 -0.2437
 4776WAT     H114847   0.651   1.135   2.370 -3.0106  0.7984 -0.3159
 4776WAT     H214848   0.713   1.058   2.255 -0.4855 -1.0534  2.1503
 4777WAT      O14849   2.730   2.950   1.110 -0.1510 -0.0170  0.1907
 4777WAT     H114850   2.640   2.941   1.078  0.2117 -1.9956 -0.3855
 4777WAT     H214851   2.745   3.045   1.109 -2.6256  0.4997  1.5544
 4778WAT      O14852   3.622   2.225   0.889  0.0873  0.3951  0.6164
 4778WAT     H114853   3.540   2.211   0.938 -1.4621  0.1572 -1.8859
 4778WAT     H214854   3.636   2.143   0.843  2.4644  0.0089  1.8761
 4779WAT      O14855   4.649   1.765   0.928  0.0512  0.2092 -0.1214
 4779WAT     H114856   4.728   1.776   0.981  0.4017 -1.5259 -0.1991
 4779WAT     H214857   4.584   1.823   0.968  1.1617  1.1119  0.3919
 4780WAT      O14858   1.988   6.040   0.703  0.2992 -0.1675 -0.2739
 4780WAT     H114859   1.931   5.964   0.691  0.2804 -0.1159 -0.5292
 4780WAT     H214860   1.946   6.109   0.652  0.6782 -0.1775 -0.6063
 4781WAT      O14861   5.352   1.156   2.804  0.2909  0.4564 -0.2532
 4781WAT     H114862   5.287   1.086   2.796  0.7005 -0.0943  0.9368
 4781WAT     H214863   5.349   1.201   2.720 -3.0670  1.7355  0.4027
 4782WAT      O14864   4.346   2.393   0.692 -0.2365  0.3551 -0.0814
 4782WAT     H114865   4.258   2.406   0.727  0.5667  1.8610  1.5230
 4782WAT     H214866   4.368   2.303   0.714 -1.1414  0.1541  0.0251
 4783WAT      O14867   2.256   3.352   0.222  0.2737 -0.0754 -0.4504
 4783WAT     H114868   2.219   3.268   0.193  0.8750 -0.5805  0.2203
 4783WAT     H214869   2.310   3.329   0.298  2.5178  0.5119 -1.7704
 4784WAT      O14870   3.724   2.733   2.561 -0.4081 -0.3301  0.1368
 4784WAT     H114871   3.744   2.811   2.510 -0.0828  1.4176  2.7745
 4784WAT     H214872   3.782   2.738   2.637 -1.6448 -2.1831  1.2990
 4785WAT      O14873   2.976   3.232   0.352 -0.5934 -0.2203  0.0513
 4785WAT     H114874   3.064   3.236   0.314 -0.6353 -1.0582 -0.1471
 4785WAT     H214875   2.988   3.185   0.435 -0.7146  0.4592  0.4646
 4786WAT      O14876   1.825   3.388   3.665 -0.2732 -0.3321 -0.2026
 4786WAT     H114877   1.748   3.377   3.720  1.0329  2.1030  2.3573
 4786WAT     H214878   1.799   3.354   3.579 -4.5194  1.3366  0.2238
 4787WAT      O14879   3.001   2.524   0.822 -0.7999  0.0897  0.1375
 4787WAT     H114880   2.946   2.460   0.868 -1.2334 -0.3312 -0.9330
 4787WAT     H214881   2.967   2.609   0.850 -0.7165 -0.1392  0.9784
 4788WAT      O14882   2.273   2.746   0.195 -0.0210  0.8501  0.8534
 4788WAT     H114883   2.346   2.685   0.182 -0.4732  0.0342  1.9745
 4788WAT     H214884   2.202   2.691   0.228 -1.6027  1.3892 -1.4010
 4789WAT      O14885   2.598   4.164   2.653  0.5960  0.0664 -0.1355
 4789WAT     H114886   2.534   4.096   2.677 -0.5808  0.4512 -1.9373
 4789WAT     H214887   2.677   4.115   2.632  0.4728 -0.5467  0.7613
 4790WAT      O14888   1.885   2.942   1.557  0.3600  0.3608 -0.4075
 4790WAT     H114889   1.964   2.897   1.585 -0.5781 -0.9077  0.3429
 4790WAT     H214890   1.815   2.899   1.606 -0.7652  1.6377 -0.8301
 4791WAT      O14891   3.759   3.103   2.152 -0.1896 -0.6171  0.0471
 4791WAT     H114892   3.732   3.194   2.161  0.5160 -0.4896  1.0097
 4791WAT     H214893   3.683   3.059   2.114 -0.9022  0.1748  0.5319
 4792WAT      O14894   1.948   2.523   0.515  0.0220 -0.3643 -0.6043
 4792WAT     H114895   1.919   2.587   0.581  1.1872 -0.8521  0.4324
 4792WAT     H214896   1.884   2.452   0.522 -0.2370 -0.1219 -0.4591
 4793WAT      O14897   1.812   0.655   1.217  0.1359  0.1063 -0.3678
 4793WAT     H114898   1.761   0.661   1.298  0.8258  0.6058  0.0333
 4793WAT     H214899   1.790   0.734   1.169  1.3600  0.8811  0.3038
 4794WAT      O14900   3.911   3.906   0.947 -0.5279  0.0526  0.7906
 4794WAT     H114901   3.874   3.992   0.967 -0.5835  0.6053 -1.4079
 4794WAT     H214902   3.992   3.925   0.901 -0.6763 -1.0451  0.0286
 4795WAT      O14903   2.547   2.663   3.241 -0.1377  0.3606  0.7087
 4795WAT     H114904   2.452   2.652   3.248 -0.1445 -0.3461 -0.2732
 4795WAT     H214905   2.568   2.728   3.307 -1.4017  0.9967  0.5214
 4796WAT      O14906   0.951   1.602   1.410 -0.4255 -0.4356  0.3072
 4796WAT     H114907   0.879   1.540   1.402 -1.3801  0.7888 -1.0050
 4796WAT     H214908   1.004   1.588   1.332  0.6527 -1.1690  1.1536
 4797WAT      O14909   1.940   2.426   5.752 -0.1063  0.2068 -0.1108
 4797WAT     H114910   2.027   2.389   5.768 -0.7521 -1.2413  0.2353
 4797WAT     H214911   1.909   2.382   5.673 -0.5991  0.5892 -0.1372
 4798WAT      O14912   3.487   3.084   5.524  0.0880 -0.0852  0.2483
 4798WAT     H114913   3.582   3.092   5.522  0.2851 -1.9991 -0.6042
 4798WAT     H214914   3.459   3.139   5.597  1.8092  0.7114  0.3499
 4799WAT      O14915   3.414   1.913   3.698 -0.5866 -0.1649 -0.0097
 4799WAT     H114916   3.436   1.926   3.606 -0.5128  1.7900  0.2409
 4799WAT     H214917   3.364   1.992   3.721 -0.1612 -0.3915  1.7560
 4800WAT      O14918   1.957   4.614   1.137  0.4310  0.3316  0.4026
 4800WAT     H114919   1.916   4.551   1.077  0.1652  0.6366  0.2648
 4800WAT     H214920   1.925   4.699   1.108  4.2278  1.1030 -2.3523
 4801WAT      O14921   1.993   5.250   2.515 -0.4002  0.1390  0.5555
 4801WAT     H114922   2.007   5.321   2.577  0.3277  0.2338  0.2969
 4801WAT     H214923   1.941   5.288   2.445  2.2647  1.2521 -0.9712
 4802WAT      O14924   3.791   2.521   2.149 -0.1883  0.1030 -0.0568
 4802WAT     H114925   3.831   2.539   2.234  0.1327  0.2935 -0.2470
 4802WAT     H214926   3.841   2.446   2.115 -0.4773 -0.1303  0.0300
 4803WAT      O14927   4.546   5.050   1.470  0.5247 -0.4886 -0.3995
 4803WAT     H114928   4.535   5.098   1.553  0.8477  0.2554 -0.7855
 4803WAT     H214929   4.537   4.958   1.495  1.2519 -0.3101  0.5695
 4804WAT      O14930   2.628   2.955   1.363 -0.2863 -0.2989 -0.1514
 4804WAT     H114931   2.688   2.931   1.293 -1.2637 -3.4607 -0.0617
 4804WAT     H214932   2.666   3.034   1.401  0.3411  1.5128 -4.0839
 4805WAT      O14933   3.694   3.650   1.939 -0.3253  0.2313  0.4299
 4805WAT     H114934   3.652   3.564   1.946  0.5651 -0.2328  0.2684
 4805WAT     H214935   3.651   3.704   2.005 -0.1231 -0.6753  1.3303
 4806WAT      O14936   7.354   2.325   1.266  0.4913 -0.4694  0.0138
 4806WAT     H114937   7.362   2.257   1.333 -0.9021 -1.7618 -1.0664
 4806WAT     H214938   7.366   2.278   1.183 -0.7099  0.5663 -0.7776
 4807WAT      O14939   2.394   1.698   2.806 -0.0933 -0.2131 -0.2885
 4807WAT     H114940   2.471   1.641   2.799  0.6436  0.8483 -1.2015
 4807WAT     H214941   2.430   1.786   2.813 -1.1960  0.4957 -2.4958
 4808WAT      O14942   2.431   0.777   1.095  0.2215 -0.0487  0.3126
 4808WAT     H114943   2.406   0.859   1.054  0.3107 -0.0577  0.2397
 4808WAT     H214944   2.357   0.755   1.152 -0.3776 -0.5687 -0.6309
 4809WAT      O14945   3.623   5.759   2.050  0.1290  0.1285 -0.0730
 4809WAT     H114946   3.547   5.743   2.106  0.0434  0.7292 -0.0071
 4809WAT     H214947   3.604   5.842   2.007  1.1937  0.8159  0.7167
 4810WAT      O14948   5.025   2.231   1.540  0.3538  0.1430 -0.1261
 4810WAT     H114949   5.066   2.163   1.486  1.2597 -0.0270  0.7413
 4810WAT     H214950   4.982   2.289   1.477 -0.0215 -0.9459 -0.9252
 4811WAT      O14951   4.329   4.760   0.688  0.2969 -0.1015 -0.4721
 4811WAT     H114952   4.373   4.691   0.738 -0.0548 -0.4012 -0.5762
 4811WAT     H214953   4.242   4.767   0.728  0.3573  0.3394 -0.4091
 4812WAT      O14954   2.847   3.367   1.954 -0.3382  0.0743 -0.2771
 4812WAT     H114955   2.922   3.317   1.923  1.1138  1.3241  1.0806
 4812WAT     H214956   2.802   3.309   2.015  0.4300 -0.1284  0.0985
 4813WAT      O14957   1.957   2.309   1.032 -0.2806 -0.2011 -0.4714
 4813WAT     H114958   1.947   2.396   1.070  0.5923  0.4169 -1.6106
 4813WAT     H214959   1.913   2.314   0.947 -1.1586 -1.2079 -0.1017
 4814WAT      O14960   3.830   0.222   1.162  0.4340  0.3561 -0.0840
 4814WAT     H114961   3.830   0.175   1.246  0.3440 -0.1256 -0.3476
 4814WAT     H214962   3.785   0.162   1.102  0.4564  0.7193 -0.4635
 4815WAT      O14963   3.262   2.590   3.349  0.0301 -0.1572  0.5009
 4815WAT     H114964   3.205   2.513   3.348  0.2816 -0.3469  0.4379
 4815WAT     H214965   3.213   2.656   3.397 -0.2208 -0.3339  0.4908
 4816WAT      O14966   2.080   4.876   5.736 -0.4867  0.6915 -0.4588
 4816WAT     H114967   2.080   4.825   5.817  0.9139  1.0364 -0.2061
 4816WAT     H214968   2.042   4.960   5.760  2.0111  1.6505  0.4882
 4817WAT      O14969   4.603   2.684   1.625 -0.0147  0.1045  0.8727
 4817WAT     H114970   4.619   2.699   1.532 -0.0837  0.5683  0.9348
 4817WAT     H214971   4.660   2.746   1.670 -1.2956  1.1617  1.1032
 4818WAT      O14972   2.994   2.799   0.556  0.3221  0.3733  0.0158
 4818WAT     H114973   2.923   2.741   0.528  1.0712 -0.6832  0.2243
 4818WAT     H214974   3.033   2.831   0.474  0.8682 -0.6543 -0.1484
 4819WAT      O14975   2.400   4.331   2.559  0.4268  0.2126 -0.3255
 4819WAT     H114976   2.447   4.248   2.549  1.2614  0.6941 -0.4616
 4819WAT     H214977   2.403   4.371   2.473  1.4105  1.1027  0.1022
 4820WAT      O14978   1.633   0.976   1.138  0.2720 -0.1532  0.8181
 4820WAT     H114979   1.610   0.919   1.064  0.6893 -1.2876  1.5276
 4820WAT     H214980   1.608   0.925   1.215 -1.8462  1.7302  1.4818
 4821WAT      O14981   2.004   2.763   3.022  0.1929  0.0278 -0.7477
 4821WAT     H114982   1.952   2.812   2.958 -0.6548 -0.5352 -0.4966
 4821WAT     H214983   2.085   2.814   3.030 -0.4029  1.0379 -0.9757
 4822WAT      O14984   0.736   1.986   1.126 -0.2821 -0.0693 -0.1658
 4822WAT     H114985   0.780   1.970   1.209 -0.4411  0.2546 -0.0133
 4822WAT     H214986   0.648   2.016   1.151 -1.7977 -3.7912 -0.4609
 4823WAT      O14987   2.652   2.512   4.258 -0.0413  0.2376 -0.0642
 4823WAT     H114988   2.689   2.467   4.334 -1.2317 -0.3474  0.1873
 4823WAT     H214989   2.566   2.542   4.288  0.8573  3.1634 -0.0388
 4824WAT      O14990   1.479   3.443   2.163 -0.0446  0.1801  0.0290
 4824WAT     H114991   1.419   3.467   2.234 -0.8338  0.2659 -0.6548
 4824WAT     H214992   1.547   3.511   2.166 -0.9302  1.1180 -0.2955
 4825WAT      O14993   3.293   2.657   1.284  0.2798  0.4424 -0.3788
 4825WAT     H114994   3.288   2.575   1.235 -3.0498  0.1615  0.1696
 4825WAT     H214995   3.210   2.701   1.265  0.5457  2.1303  1.9302
 4826WAT      O14996   0.991   2.540   4.272  0.0045  0.0395  0.4543
 4826WAT     H114997   0.939   2.461   4.256  1.3239 -0.8384  0.3055
 4826WAT     H214998   1.072   2.526   4.222  1.6648 -0.0132  2.9835
 4827WAT      O14999   2.258   2.668   0.552  0.0592 -0.0158 -0.4039
 4827WAT     H115000   2.221   2.584   0.580  0.5349 -0.2705 -0.5456
 4827WAT     H215001   2.330   2.645   0.494  0.2798  0.4909 -0.3350
 4828WAT      O15002   3.601   2.715   2.864  0.2113 -0.0897 -0.1922
 4828WAT     H115003   3.692   2.719   2.836  0.7496  1.0000  1.5507
 4828WAT     H215004   3.572   2.628   2.839  2.0299 -0.8075  0.0616
 4829WAT      O15005   2.169   0.576   0.908 -0.0634  0.0037 -0.2676
 4829WAT     H115006   2.082   0.550   0.938  0.3335 -0.2696  0.6900
 4829WAT     H215007   2.228   0.546   0.978  0.8750 -0.4608 -1.2283
 4830WAT      O15008   2.770   2.982   2.296  0.4595  0.5808 -0.4855
 4830WAT     H115009   2.708   2.914   2.270  0.5188  1.0427 -1.9380
 4830WAT     H215010   2.744   3.005   2.385 -0.0211 -0.8122 -0.2384
 4831WAT      O15011   1.752   2.386   3.276 -0.2438 -0.0239  0.5144
 4831WAT     H115012   1.659   2.393   3.254  0.2808  0.5175 -1.8319
 4831WAT     H215013   1.765   2.446   3.349 -1.4501  1.1280 -0.1844
 4832WAT      O15014   2.141   1.257   1.119 -0.7992 -0.1552 -0.8922
 4832WAT     H115015   2.093   1.175   1.129 -1.1515  0.0967 -0.4662
 4832WAT     H215016   2.081   1.324   1.151 -0.0229  0.1309  0.0093
 4833WAT      O15017   2.695   2.682   2.551  0.1242  0.3804 -0.0880
 4833WAT     H115018   2.769   2.675   2.491  0.1527 -0.7630  0.0679
 4833WAT     H215019   2.704   2.608   2.610 -2.0270 -0.7969 -1.0835
 4834WAT      O15020   3.138   0.708   0.806  0.7938  0.7930  0.2514
 4834WAT     H115021   3.058   0.747   0.771  0.5754 -1.3671 -1.8986
 4834WAT     H215022   3.138   0.732   0.899 -2.3377  0.8337  0.3432
 4835WAT      O15023   1.884   3.072   3.012 -0.2392 -0.1261 -0.0859
 4835WAT     H115024   1.808   3.026   2.978  0.0287 -1.4668  1.0651
 4835WAT     H215025   1.902   3.140   2.947 -1.9743 -0.2418 -0.7241
 4836WAT      O15026   2.484   2.660   1.358  0.4953  0.7211  0.0511
 4836WAT     H115027   2.456   2.641   1.448 -1.1147 -0.5153 -0.6402
 4836WAT     H215028   2.504   2.753   1.358  1.1508  0.6120  1.8377
 4837WAT      O15029   3.824   1.672   2.701  0.3609 -0.1991  0.1495
 4837WAT     H115030   3.810   1.577   2.698  2.8832 -0.6951  1.5011
 4837WAT     H215031   3.783   1.699   2.783  0.4762 -0.2815  0.2345
 4838WAT      O15032   2.292   5.874   1.038 -0.6381 -0.8266 -0.5688
 4838WAT     H115033   2.226   5.941   1.021 -1.6103 -1.4099  0.7328
 4838WAT     H215034   2.357   5.887   0.970 -1.3363  0.7462 -0.9768
 4839WAT      O15035   3.283   2.314   1.434  0.1402  0.5073 -0.0114
 4839WAT     H115036   3.329   2.256   1.494  0.3866  1.7915  1.0929
 4839WAT     H215037   3.243   2.381   1.491  0.3295  1.7227 -1.2517
 4840WAT      O15038   2.862   1.371   3.587 -0.0576 -0.5487  0.0773
 4840WAT     H115039   2.951   1.399   3.566 -0.7449  0.7954 -1.2713
 4840WAT     H215040   2.861   1.277   3.569  0.6370 -0.2634 -1.5911
 4841WAT      O15041   2.548   3.453   4.395  0.6034  0.4121  0.4639
 4841WAT     H115042   2.470   3.399   4.404  0.8938 -0.6181 -2.2344
 4841WAT     H215043   2.522   3.539   4.429 -1.0975 -0.3698  1.2519
 4842WAT      O15044   2.481   0.853   0.618 -0.1598  0.5212 -0.5525
 4842WAT     H115045   2.432   0.928   0.586  0.1145  1.1104  0.3719
 4842WAT     H215046   2.505   0.876   0.707 -1.0415 -1.1281  0.1639
 4843WAT      O15047   7.411   3.816   2.116 -0.6752 -0.6541  0.1629
 4843WAT     H115048   7.328   3.817   2.068 -1.3526 -0.9734  1.2692
 4843WAT     H215049   7.451   3.900   2.097 -0.1978 -1.3506 -2.1400
 4844WAT      O15050   1.217   1.638   2.202 -0.2822 -0.0719  0.0562
 4844WAT     H115051   1.166   1.625   2.282  1.5355 -2.2728  0.9599
 4844WAT     H215052   1.169   1.588   2.135  0.4956 -2.0119  0.8622
 4845WAT      O15053   2.517   1.392   4.699 -0.6545  0.2672 -0.1436
 4845WAT     H115054   2.548   1.410   4.610  1.2521 -2.0921 -0.0654
 4845WAT     H215055   2.564   1.313   4.725 -3.3316 -0.7838  1.9147
 4846WAT      O15056   3.630   3.881   0.869 -0.0809  0.0659 -0.4859
 4846WAT     H115057   3.589   3.874   0.956  0.1589  0.2449 -0.3572
 4846WAT     H215058   3.724   3.876   0.886  0.0449  1.6037 -0.5551
 4847WAT      O15059   3.133   0.709   1.596  0.3081  0.0417 -0.3910
 4847WAT     H115060   3.066   0.767   1.632  0.2208 -0.2590 -0.0684
 4847WAT     H215061   3.151   0.646   1.666  0.1656 -0.5201 -0.8487
 4848WAT      O15062   3.594   4.101   1.481 -0.1529 -0.3750  0.2450
 4848WAT     H115063   3.558   4.028   1.432 -1.6638 -0.0701  0.8648
 4848WAT     H215064   3.573   4.083   1.572  0.2461  0.3976  0.5080
 4849WAT      O15065   3.825   2.438   2.830  0.3214 -0.5342  0.5460
 4849WAT     H115066   3.733   2.451   2.808  0.4319  0.2829  0.5408
 4849WAT     H215067   3.871   2.450   2.747  0.8324  3.4832  1.2049
 4850WAT      O15068   2.820   2.059   2.142 -0.3287 -0.0737 -0.2570
 4850WAT     H115069   2.730   2.044   2.168 -0.3299 -0.2455 -0.3617
 4850WAT     H215070   2.839   2.148   2.173 -0.8518  0.3444 -1.0911
 4851WAT      O15071   1.726   2.315   4.901  0.3338  0.2145 -0.3481
 4851WAT     H115072   1.745   2.374   4.828  1.3026  1.5873  0.9572
 4851WAT     H215073   1.785   2.241   4.888  2.0874  1.4663  0.1780
 4852WAT      O15074   0.785   4.182   1.774 -0.4161  0.0608 -0.1544
 4852WAT     H115075   0.790   4.189   1.870 -0.4251  0.2368 -0.1660
 4852WAT     H215076   0.871   4.150   1.748 -1.3432 -2.9801  0.1632
 4853WAT      O15077   2.757   0.643   2.714 -0.1151  0.7588  0.7791
 4853WAT     H115078   2.757   0.646   2.618  1.7407 -3.8066  0.3714
 4853WAT     H215079   2.824   0.705   2.740  0.1833  1.2246 -0.9573
 4854WAT      O15080   2.187   2.674   2.056 -0.4560 -0.2393  0.1562
 4854WAT     H115081   2.124   2.723   2.004  0.5137 -0.6491 -1.4986
 4854WAT     H215082   2.212   2.734   2.127 -0.7466  0.9230 -0.6946
 4855WAT      O15083   3.263   1.842   2.589  0.1159  0.0675 -0.2462
 4855WAT     H115084   3.231   1.930   2.609 -0.3253 -0.1829  0.1791
 4855WAT     H215085   3.314   1.852   2.509 -0.0511  0.6864 -0.2772
 4856WAT      O15086   3.561   3.368   5.936 -0.2547 -0.2067 -0.1840
 4856WAT     H115087   3.655   3.356   5.953 -0.2829 -0.7123 -0.3653
 4856WAT     H215088   3.520   3.293   5.978 -0.9825  1.8506  3.1832
 4857WAT      O15089   1.767   1.070   0.928 -0.6153 -0.8638 -0.2344
 4857WAT     H115090   1.715   1.061   1.008 -0.9237  1.2982 -0.1369
 4857WAT     H215091   1.833   1.136   0.950  0.5020 -1.6143 -1.2040
 4858WAT      O15092   2.674   2.877   0.340  0.2799  0.2086  0.9470
 4858WAT     H115093   2.627   2.928   0.274 -1.5468  1.2539  2.9167
 4858WAT     H215094   2.705   2.942   0.403  2.1863 -0.7252  1.0367
 4859WAT      O15095   1.995   1.820   3.539 -0.1527 -0.0048 -0.1630
 4859WAT     H115096   1.951   1.741   3.571 -1.1161  0.8118  0.6466
 4859WAT     H215097   1.933   1.858   3.477  0.3000  0.1072 -0.5462
 4860WAT      O15098   2.489   1.980   5.833  0.3465  0.2341  0.2659
 4860WAT     H115099   2.581   1.966   5.858  0.4598 -0.7537 -0.6280
 4860WAT     H215100   2.495   2.030   5.751  0.0674  0.7379  0.5536
 4861WAT      O15101   3.293   0.925   0.525  0.0100 -0.5335 -0.3852
 4861WAT     H115102   3.226   0.985   0.494  0.3990  0.2526  0.2504
 4861WAT     H215103   3.313   0.870   0.449  0.5301  0.9516 -1.3904
 4862WAT      O15104   3.993   1.799   2.240 -0.3473  0.9467  0.2523
 4862WAT     H115105   3.965   1.714   2.272 -1.5004  1.6449  1.1972
 4862WAT     H215106   3.912   1.851   2.236  0.1158  1.6305 -1.5389
 4863WAT      O15107   1.504   2.157   2.741  0.3796  0.4674 -0.0300
 4863WAT     H115108   1.549   2.185   2.821 -0.9597  1.9126  0.2519
 4863WAT     H215109   1.413   2.146   2.767  0.0727  0.1344 -1.1904
 4864WAT      O15110   2.525   1.937   2.795 -0.0968  0.5647  0.0286
 4864WAT     H115111   2.497   2.024   2.766 -0.1670  0.5453  0.0380
 4864WAT     H215112   2.588   1.909   2.728  1.5058  1.4849  1.0864
 4865WAT      O15113   1.587   1.620   1.021  0.2398 -0.5391  0.0952
 4865WAT     H115114   1.553   1.566   0.950  2.0051  0.8204 -1.9199
 4865WAT     H215115   1.540   1.703   1.012  0.9470 -0.1326  0.0608
 4866WAT      O15116   3.350   1.188   2.275 -0.2319  0.0941 -0.0050
 4866WAT     H115117   3.340   1.106   2.324 -2.7299  0.3373  0.0386
 4866WAT     H215118   3.321   1.256   2.337  2.0915  1.1004  0.0615
 4867WAT      O15119   1.987   0.520   1.434  0.6835  0.0345 -0.1209
 4867WAT     H115120   2.074   0.512   1.472  0.8987 -0.0012 -0.6200
 4867WAT     H215121   2.000   0.507   1.340  0.0947 -0.2872 -0.1623
 4868WAT      O15122   2.868   0.545   1.511  0.9541  0.7337  0.0323
 4868WAT     H115123   2.787   0.501   1.538  1.4867 -0.4782 -0.2487
 4868WAT     H215124   2.851   0.638   1.525 -0.8287  0.6032 -0.8868
 4869WAT      O15125   3.576   3.399   0.328  0.1548 -0.2012 -0.7670
 4869WAT     H115126   3.552   3.431   0.241  2.4192  1.9842 -0.7358
 4869WAT     H215127   3.542   3.465   0.388  0.1030 -0.7847 -0.1458
 4870WAT      O15128   3.196   0.687   1.078  0.0455 -0.2500 -0.6962
 4870WAT     H115129   3.193   0.686   1.174 -2.6904  0.9544 -0.6802
 4870WAT     H215130   3.226   0.599   1.054  2.7546  0.0270  1.2212
 4871WAT      O15131   3.649   0.138   0.722 -0.3362 -0.5536 -0.2338
 4871WAT     H115132   3.729   0.141   0.669  0.0330  0.2611  0.3485
 4871WAT     H215133   3.580   0.169   0.663 -0.0648 -0.4039 -0.4749
 4872WAT      O15134   5.332   0.621   3.009 -0.3210  0.1842 -0.1537
 4872WAT     H115135   5.426   0.609   3.002 -0.1700  1.0265  0.2727
 4872WAT     H215136   5.294   0.537   2.982  0.5326 -0.0446 -0.6541
 4873WAT      O15137   1.403   1.858   0.893  0.2036  0.0100  0.7886
 4873WAT     H115138   1.334   1.846   0.828 -0.3907  2.9698  0.7404
 4873WAT     H215139   1.484   1.855   0.842 -0.1363  0.2503  0.2216
 4874WAT      O15140   4.265   2.429   1.284  0.0898 -0.3855 -0.2848
 4874WAT     H115141   4.279   2.337   1.261  0.9593 -0.0528 -1.1408
 4874WAT     H215142   4.288   2.435   1.377 -1.9474 -1.4248  0.3630
 4875WAT      O15143   3.649   0.971   0.701  0.5222  0.4422 -0.2650
 4875WAT     H115144   3.707   0.925   0.640  2.2332  2.2399 -0.1025
 4875WAT     H215145   3.636   0.909   0.773  1.6028 -0.3101 -0.6893
 4876WAT      O15146   4.023   1.826   1.033  0.4247 -0.5660  0.1879
 4876WAT     H115147   3.991   1.915   1.051  1.3483 -0.5446  1.9466
 4876WAT     H215148   4.117   1.836   1.024  0.2986 -1.0375 -2.1774
 4877WAT      O15149   4.758   2.361   2.065  0.2851 -0.1027  0.3440
 4877WAT     H115150   4.821   2.301   2.025 -0.1145 -1.5065  1.7326
 4877WAT     H215151   4.676   2.312   2.066 -0.6215  1.3152 -0.5096
 4878WAT      O15152   4.004   3.566   2.027  0.2406  0.6289  0.1567
 4878WAT     H115153   3.911   3.547   2.016  0.1273 -0.0684  1.9706
 4878WAT     H215154   4.007   3.631   2.098  1.1791 -0.4513  1.1467
 4879WAT      O15155   6.815   6.108   2.502 -0.1535  0.4922  0.0342
 4879WAT     H115156   6.758   6.137   2.431 -1.7212 -1.3523  0.4666
 4879WAT     H215157   6.789   6.018   2.518  1.7477  0.1403  1.4319
 4880WAT      O15158   2.257   3.183   2.859 -0.0631 -0.5114  0.8518
 4880WAT     H115159   2.334   3.241   2.859 -0.4208 -0.0179  1.3077
 4880WAT     H215160   2.197   3.222   2.796 -0.2374 -0.4761  1.0366
 4881WAT      O15161   3.570   2.439   2.795 -0.3379  0.1037  0.4181
 4881WAT     H115162   3.551   2.415   2.704 -0.0944  1.2648  0.0388
 4881WAT     H215163   3.489   2.422   2.842 -0.5990 -0.1095 -0.0996
 4882WAT      O15164   1.846   6.084   1.407  0.5498 -0.1137  0.2365
 4882WAT     H115165   1.819   6.171   1.437 -0.0264 -0.0844 -0.3440
 4882WAT     H215166   1.856   6.094   1.313  0.4901 -0.6798  0.1698
 4883WAT      O15167   2.635   1.000   1.744 -0.2460 -0.2445  0.8272
 4883WAT     H115168   2.665   1.075   1.796  1.0670  0.3177 -0.6601
 4883WAT     H215169   2.560   1.033   1.695 -0.0378 -0.0738  0.6222
 4884WAT      O15170   2.969   5.356   3.805 -0.8747  0.2602  0.3066
 4884WAT     H115171   2.952   5.366   3.712 -1.1426  2.0544  0.5099
 4884WAT     H215172   3.047   5.301   3.810 -1.5511 -0.8646 -0.9111
 4885WAT      O15173   3.073   3.595   0.789  0.3986 -0.1190 -0.2167
 4885WAT     H115174   3.107   3.507   0.803  3.2546  0.7405 -1.0617
 4885WAT     H215175   3.062   3.602   0.695 -0.0335  0.3425 -0.1374
 4886WAT      O15176   2.720   2.684   1.816  0.4236  0.6365 -0.1585
 4886WAT     H115177   2.672   2.762   1.787 -0.6544  1.5338  3.4905
 4886WAT     H215178   2.652   2.618   1.832  0.4735  1.1308  2.7407
 4887WAT      O15179   3.371   1.483   1.659  0.2157 -0.4525 -0.1135
 4887WAT     H115180   3.338   1.565   1.696  2.2506  0.2184  0.3524
 4887WAT     H215181   3.440   1.511   1.598  0.6482 -1.7863 -0.2637
 4888WAT      O15182   5.179   2.175   1.895 -0.3369  0.2007 -0.0762
 4888WAT     H115183   5.239   2.139   1.829 -1.9012  0.5733 -1.7932
 4888WAT     H215184   5.175   2.268   1.875  1.1172  0.8296  2.2352
 4889WAT      O15185   2.064   1.492   1.247 -0.1916  0.5861 -0.0738
 4889WAT     H115186   2.084   1.556   1.179  0.5694  1.0752  0.6028
 4889WAT     H215187   2.139   1.495   1.306 -1.0931  0.5852  1.1042
 4890WAT      O15188   2.146   1.039   2.618 -0.3028 -0.0807 -0.4817
 4890WAT     H115189   2.085   1.044   2.544  0.0605 -1.2000 -0.8910
 4890WAT     H215190   2.130   0.952   2.655  0.7383 -0.2141 -0.3263
 4891WAT      O15191   3.457   2.162   2.822 -0.3985  0.0598  0.0182
 4891WAT     H115192   3.521   2.161   2.894 -1.5396  2.0121  1.1379
 4891WAT     H215193   3.509   2.143   2.744  1.3607  0.4832  1.0290
 4892WAT      O15194   2.925   0.130   1.994 -0.0505 -0.0729  0.6516
 4892WAT     H115195   2.962   0.166   1.913  2.3449 -1.3059  1.0901
 4892WAT     H215196   2.977   0.170   2.064  1.0547 -2.4133  1.2650
 4893WAT      O15197   5.141   2.006   2.109  0.3467 -0.1878 -0.2230
 4893WAT     H115198   5.137   1.918   2.072  0.9217 -0.7931  1.0907
 4893WAT     H215199   5.167   2.061   2.035 -2.4470 -0.6741 -1.6932
 4894WAT      O15200   5.882   1.926   1.494  0.4527 -0.1839  0.2351
 4894WAT     H115201   5.961   1.896   1.540  0.6597 -0.0028  0.0033
 4894WAT     H215202   5.853   1.849   1.445  1.7114  0.3029 -1.3611
 4895WAT      O15203   7.242   3.316   2.756 -0.6427 -0.0844  0.1866
 4895WAT     H115204   7.266   3.381   2.690 -2.0184 -0.2054 -0.4806
 4895WAT     H215205   7.315   3.255   2.758  0.8877  1.6995  1.1456
 4896WAT      O15206   3.156   2.326   3.154  0.3578 -0.2642  0.1480
 4896WAT     H115207   3.145   2.233   3.174  1.0972 -0.7304 -1.4727
 4896WAT     H215208   3.090   2.370   3.208  1.1699 -1.5425  2.2904
 4897WAT      O15209   3.761   2.295   2.430  0.3692 -0.0310 -0.8025
 4897WAT     H115210   3.713   2.362   2.478 -0.9840 -0.3998 -1.6010
 4897WAT     H215211   3.706   2.276   2.354  0.4720 -2.3949 -0.3451
 4898WAT      O15212   1.820   0.668   0.689 -0.1052  0.2964  0.4555
 4898WAT     H115213   1.863   0.720   0.621 -0.9175  1.9318  1.1488
 4898WAT     H215214   1.879   0.674   0.764 -0.1155  0.0564  0.4837
 4899WAT      O15215   3.543   1.070   2.514  0.1471  0.1020 -0.5807
 4899WAT     H115216   3.491   1.017   2.574  2.5719 -0.3264  1.2968
 4899WAT     H215217   3.577   1.141   2.568 -1.3261  2.5439 -2.5719
 4900WAT      O15218   3.176   4.119   0.444  0.1589 -0.2706  0.1452
 4900WAT     H115219   3.189   4.213   0.450  1.0553 -0.3423 -0.4292
 4900WAT     H215220   3.200   4.085   0.530  0.2522 -0.0146  0.2186
 4901WAT      O15221   2.257   6.132   0.627  0.3720 -0.1163  0.7338
 4901WAT     H115222   2.185   6.069   0.628  1.3670 -1.2981  0.8513
 4901WAT     H215223   2.242   6.188   0.703 -1.3569  0.7855 -0.2164
 4902WAT      O15224   2.794   2.627   0.449 -0.1606 -0.1951  0.4103
 4902WAT     H115225   2.719   2.567   0.448  0.2358 -0.7013  0.4225
 4902WAT     H215226   2.766   2.702   0.398 -0.7767 -0.2601  0.6464
 4903WAT      O15227   3.297   1.963   1.794  0.0359 -0.4798  0.3044
 4903WAT     H115228   3.269   2.034   1.737 -0.9064 -0.2812  0.9853
 4903WAT     H215229   3.265   1.988   1.881  1.2494 -0.8750  0.8834
 4904WAT      O15230   3.718   3.286   4.490 -0.3111  0.0401 -0.4474
 4904WAT     H115231   3.629   3.281   4.524  0.1664  0.3037  0.8857
 4904WAT     H215232   3.714   3.355   4.424 -1.0789  0.0845 -0.3640
 4905WAT      O15233   2.283   3.876   1.443 -0.4620 -0.2494  0.0260
 4905WAT     H115234   2.292   3.925   1.361 -1.4027 -0.1726 -0.0428
 4905WAT     H215235   2.237   3.935   1.501 -0.4043 -0.5604  0.3918
 4906WAT      O15236   3.007   2.862   1.377  0.2922  0.3255 -0.3488
 4906WAT     H115237   2.975   2.784   1.421 -0.2329  1.2699  1.0241
 4906WAT     H215238   2.985   2.848   1.285 -2.0412 -0.0993  0.1903
 4907WAT      O15239   0.316   1.543   4.231  0.0296 -0.3000 -0.2657
 4907WAT     H115240   0.308   1.636   4.210 -2.2798  0.1612  2.1336
 4907WAT     H215241   0.242   1.502   4.187  1.6590 -1.3139 -2.2562
 4908WAT      O15242   1.097   1.329   4.717  0.3573 -0.0453 -0.1506
 4908WAT     H115243   1.022   1.368   4.762 -0.2718 -0.7229 -0.5900
 4908WAT     H215244   1.150   1.404   4.691 -0.5724  0.5025 -0.5365
 4909WAT      O15245   2.163   0.290   4.101 -0.3598 -0.4629  0.2679
 4909WAT     H115246   2.248   0.319   4.136 -0.2040 -1.4482  0.7336
 4909WAT     H215247   2.101   0.310   4.171 -0.4686 -0.0242  0.0489
 4910WAT      O15248   2.349   3.013   1.118 -0.5971 -0.4057 -0.1366
 4910WAT     H115249   2.391   3.073   1.056  0.8899  0.2436  1.4115
 4910WAT     H215250   2.355   2.927   1.076 -0.1232  0.0940 -1.1298
 4911WAT      O15251   2.252   2.562   2.394 -0.4890  0.4249  0.0821
 4911WAT     H115252   2.291   2.490   2.345 -0.3483  0.3446  0.3115
 4911WAT     H215253   2.157   2.548   2.386 -0.4780  0.6254 -0.4841
 4912WAT      O15254   1.632   2.235   5.945 -0.3137 -0.4326  0.1600
 4912WAT     H115255   1.628   2.304   5.878  0.2526 -0.3622  0.1996
 4912WAT     H215256   1.575   2.166   5.911 -0.3959 -0.2024 -0.1754
 4913WAT      O15257   1.635   3.041   2.878  0.2068  0.5166  0.3993
 4913WAT     H115258   1.615   3.078   2.791 -0.8029 -0.5709  0.1454
 4913WAT     H215259   1.606   2.950   2.872  1.6410 -0.0258  1.3615
 4914WAT      O15260   3.809   3.375   4.815  0.2281  0.1507 -1.1696
 4914WAT     H115261   3.892   3.381   4.768  0.8043 -0.9403 -0.3265
 4914WAT     H215262   3.789   3.281   4.816  1.7305 -0.3438  3.1990
 4915WAT      O15263   1.947   1.290   5.925 -0.5454  0.6970 -0.4126
 4915WAT     H115264   1.908   1.377   5.934 -0.2755  0.7260  0.6886
 4915WAT     H215265   2.012   1.286   5.996 -0.3450 -0.2835 -0.6425
 4916WAT      O15266   2.039   2.742   1.273 -0.0658  0.2414  0.4033
 4916WAT     H115267   2.005   2.823   1.235 -0.0697  0.1573  0.2255
 4916WAT     H215268   2.116   2.722   1.219 -0.1404  0.0574  0.3651
 4917WAT      O15269   1.797   1.560   4.123 -0.1235 -0.2324  0.0850
 4917WAT     H115270   1.734   1.490   4.107 -0.7440  0.4995 -0.7518
 4917WAT     H215271   1.746   1.640   4.121  0.9066  0.4477 -1.3486
 4918WAT      O15272   2.699   0.485   1.201  0.0688  0.4196  0.0536
 4918WAT     H115273   2.676   0.520   1.115  0.7223  1.0809  0.1300
 4918WAT     H215274   2.794   0.470   1.196  0.0204 -0.0699  0.4781
 4919WAT      O15275   5.720   2.640   0.979  0.1162 -0.0847  0.2416
 4919WAT     H115276   5.814   2.653   0.984  0.0041  0.5546  0.7105
 4919WAT     H215277   5.710   2.555   0.934  0.8883  0.3700 -0.8388
 4920WAT      O15278   1.962   0.265   4.683 -0.2779 -0.4637  0.2023
 4920WAT     H115279   1.887   0.213   4.712 -1.0326  0.0632 -0.7413
 4920WAT     H215280   1.993   0.219   4.604 -1.4254  0.8754 -1.0906
 4921WAT      O15281   2.266   3.250   0.668  0.0925 -0.1135 -0.4003
 4921WAT     H115282   2.235   3.160   0.663  0.8661 -0.3577 -0.9190
 4921WAT     H215283   2.337   3.255   0.604  1.9536  0.0968  1.5789
 4922WAT      O15284   2.954   3.008   5.598  0.2712 -0.0298 -0.1529
 4922WAT     H115285   3.018   2.942   5.627  1.3547  0.8787 -0.3865
 4922WAT     H215286   2.901   2.964   5.532  0.6826 -0.8005  0.0256
 4923WAT      O15287   3.448   3.757   5.306  0.4536 -0.0980  0.6256
 4923WAT     H115288   3.399   3.819   5.252  0.3158 -0.5640  0.2157
 4923WAT     H215289   3.499   3.705   5.244  1.5076  0.4011  1.0511
 4924WAT      O15290   1.085   4.443   0.197 -0.5411 -0.0562  0.5498
 4924WAT     H115291   0.995   4.446   0.231 -0.9038 -1.7727 -0.1430
 4924WAT     H215292   1.074   4.442   0.102  0.2611  0.5119  0.4468
 4925WAT      O15293   1.982   1.455   4.681  0.0315 -0.7062  0.4608
 4925WAT     H115294   1.982   1.397   4.605 -0.2807  0.6242 -0.6127
 4925WAT     H215295   2.070   1.447   4.718  0.6039 -0.4783 -0.7941
 4926WAT      O15296   4.163   3.544   1.666  0.2780 -0.2435 -0.0287
 4926WAT     H115297   4.137   3.484   1.736 -0.5470 -1.3012 -1.1953
 4926WAT     H215298   4.092   3.607   1.660 -0.0342 -0.6313 -0.4372
 4927WAT      O15299   1.811   1.046   0.204 -0.0108 -0.2982 -0.4219
 4927WAT     H115300   1.727   1.062   0.248  0.2493 -2.2244  0.9018
 4927WAT     H215301   1.869   1.113   0.239 -0.6293  0.1498 -0.2365
 4928WAT      O15302   1.542   4.486   5.721 -0.7079  0.4601 -0.3296
 4928WAT     H115303   1.506   4.539   5.793  2.3248  3.8979 -1.0750
 4928WAT     H215304   1.483   4.504   5.647 -1.6001  0.0380  0.2519
 4929WAT      O15305   1.813   1.846   0.040  0.2496 -0.0819  0.4644
 4929WAT     H115306   1.906   1.826   0.032  0.1173 -0.4398 -0.3211
 4929WAT     H215307   1.771   1.761   0.055  0.1046  0.1477  1.3916
 4930WAT      O15308   1.285   1.945   5.756  0.0963  0.1297 -0.1182
 4930WAT     H115309   1.250   2.003   5.688 -0.6114 -2.5868 -2.2366
 4930WAT     H215310   1.335   1.880   5.707 -1.2609 -2.5365  1.8300
 4931WAT      O15311   1.743   1.586   0.663  0.2468 -0.0953  0.2916
 4931WAT     H115312   1.746   1.676   0.697  0.0851  0.3118 -0.7385
 4931WAT     H215313   1.661   1.551   0.696  0.3137  0.1297  0.7079
 4932WAT      O15314   1.274   1.923   5.038  0.1018  0.0748  0.4422
 4932WAT     H115315   1.363   1.956   5.022 -0.2864  1.9513  1.7561
 4932WAT     H215316   1.280   1.878   5.122 -0.0997 -0.2083  0.3067
 4933WAT      O15317   2.529   4.585   5.973 -0.4569 -0.1016  0.5251
 4933WAT     H115318   2.566   4.620   6.054 -0.4165  1.3436 -0.1034
 4933WAT     H215319   2.559   4.494   5.972  0.0659  0.0303  1.8154
 4934WAT      O15320   2.987   3.037   5.047 -0.2929  0.5000  0.4979
 4934WAT     H115321   2.924   3.078   4.988 -0.1951 -0.9345 -0.6612
 4934WAT     H215322   2.959   2.945   5.052  1.8200 -0.2587 -0.2955
 4935WAT      O15323   2.154   3.338   5.353 -0.2795 -0.7777 -0.0153
 4935WAT     H115324   2.225   3.380   5.305 -1.0199 -0.5543 -0.9690
 4935WAT     H215325   2.102   3.410   5.388 -0.9897 -0.8901 -0.7961
 4936WAT      O15326   4.108   3.577   5.583  0.4095 -0.4520  0.0598
 4936WAT     H115327   4.153   3.588   5.499  1.1922  2.3810  0.7273
 4936WAT     H215328   4.023   3.619   5.570  0.0906 -0.9875  0.3855
 4937WAT      O15329   2.903   1.206   5.679 -0.1589 -0.9237 -0.1499
 4937WAT     H115330   2.867   1.119   5.694 -0.7914 -0.8963 -1.3900
 4937WAT     H215331   2.968   1.194   5.610  0.2511 -0.5199  0.1568
 4938WAT      O15332   2.881   0.819   0.776 -0.0098  0.3686  0.0295
 4938WAT     H115333   2.790   0.819   0.748 -0.3908 -1.4841  1.0919
 4938WAT     H215334   2.877   0.844   0.869  0.6934  1.2922 -0.1699
 4939WAT      O15335   1.752   3.319   0.321 -0.1796 -0.2265  0.0431
 4939WAT     H115336   1.812   3.373   0.373 -1.3507  2.4642 -1.1912
 4939WAT     H215337   1.740   3.240   0.374  1.0746  1.0198  2.3815
 4940WAT      O15338   1.764   0.450   0.211  0.2978 -0.2906  0.1101
 4940WAT     H115339   1.776   0.544   0.200  0.0755 -0.0510  1.6254
 4940WAT     H215340   1.773   0.436   0.306 -0.5009 -1.6722  0.0133
 4941WAT      O15341   2.846   2.283   2.282 -0.3349  0.5680 -0.1786
 4941WAT     H115342   2.825   2.374   2.303 -0.0036  0.8206 -0.9055
 4941WAT     H215343   2.942   2.281   2.280 -0.3510  0.3379 -0.7278
 4942WAT      O15344   2.499   2.580   0.400  0.1212  0.7397 -0.4135
 4942WAT     H115345   2.512   2.618   0.314  0.0765 -0.1093 -0.8096
 4942WAT     H215346   2.512   2.486   0.387 -1.0258  0.4563  0.2615
 4943WAT      O15347   2.375   0.214   0.484  0.1673  0.3527  0.5153
 4943WAT     H115348   2.345   0.144   0.542  0.8135 -0.5174 -0.1696
 4943WAT     H215349   2.356   0.181   0.396  1.4972  0.5572  0.1421
 4944WAT      O15350   2.651   3.156   5.288 -0.3225 -0.6539 -0.2617
 4944WAT     H115351   2.681   3.197   5.207 -1.4530 -0.2127 -0.4771
 4944WAT     H215352   2.602   3.225   5.333  0.9496 -0.6491  1.1954
 4945WAT      O15353   2.447   0.018   5.126  0.3228 -0.7039  0.5116
 4945WAT     H115354   2.424  -0.036   5.202 -0.5974 -1.7403 -0.4669
 4945WAT     H215355   2.500  -0.039   5.071  0.2967 -0.2296 -0.0139
 4946WAT      O15356   2.884   0.127   1.142 -0.7510 -0.1781  0.1465
 4946WAT     H115357   2.858   0.184   1.214 -0.0864  0.3258 -0.0066
 4946WAT     H215358   2.880   0.038   1.178 -1.2641 -0.0027  0.5419
 4947WAT      O15359   2.636   2.216   5.346 -0.3506 -0.1762 -0.0925
 4947WAT     H115360   2.639   2.274   5.270 -0.9826  1.3713  1.0163
 4947WAT     H215361   2.641   2.128   5.309  1.0718  0.5584 -1.8147
 4948WAT      O15362   2.558   4.011   5.606 -0.0004  0.6356  0.0277
 4948WAT     H115363   2.573   3.996   5.699 -2.1367  1.9790  0.6523
 4948WAT     H215364   2.601   4.095   5.588  0.1318  0.5383 -0.1042
 4949WAT      O15365   3.720   1.409   4.861  0.1814 -0.3869 -0.4299
 4949WAT     H115366   3.661   1.335   4.876 -3.0550  1.4848 -2.6500
 4949WAT     H215367   3.713   1.427   4.767  1.4618  2.2134 -0.1102
 4950WAT      O15368   1.924   0.112   5.859  0.2085  0.0641 -0.3244
 4950WAT     H115369   1.999   0.059   5.885 -0.0179  0.6616  1.6407
 4950WAT     H215370   1.875   0.127   5.939 -0.9438  1.3841 -1.2154
 4951WAT      O15371   1.964   4.712   5.949 -0.2414  0.3630 -0.1131
 4951WAT     H115372   1.898   4.693   5.881 -0.8230  0.0634  0.5261
 4951WAT     H215373   2.034   4.649   5.933  0.2875  1.2056 -1.3032
 4952WAT      O15374   2.565   2.665   0.156 -0.0581  0.3298  0.1822
 4952WAT     H115375   2.551   2.730   0.088  1.2008  1.1917  0.6989
 4952WAT     H215376   2.660   2.650   0.155 -0.0644  0.1002  1.4810
 4953WAT      O15377   3.761   3.021   5.538 -0.3433  0.3957 -0.1043
 4953WAT     H115378   3.819   3.083   5.495 -0.9207  0.2527 -1.1070
 4953WAT     H215379   3.797   2.935   5.517  1.9638  0.3216  3.3617
 4954WAT      O15380   4.273   4.185   1.639  0.5237 -0.1094  0.6705
 4954WAT     H115381   4.309   4.097   1.631  3.1524  0.8381  1.1166
 4954WAT     H215382   4.224   4.199   1.558 -1.1217 -2.3975  1.1647
 4955WAT      O15383   4.455   2.923   0.960 -0.4418  0.3449 -0.0060
 4955WAT     H115384   4.485   3.008   0.991 -0.0610  0.3268 -0.3238
 4955WAT     H215385   4.503   2.859   1.013 -0.5935  0.3286  0.1099
 4956WAT      O15386   2.780   4.405   1.325  0.1851 -0.5722 -0.8732
 4956WAT     H115387   2.772   4.309   1.329  0.3327 -0.6853  4.6786
 4956WAT     H215388   2.873   4.421   1.314  0.2958 -1.1009 -0.7259
 4957WAT      O15389   2.234   2.658   5.849 -0.2853  0.0456 -0.5765
 4957WAT     H115390   2.259   2.659   5.757 -0.0700  0.8971 -0.5227
 4957WAT     H215391   2.296   2.597   5.891 -0.9185 -0.9899 -1.1255
 4958WAT      O15392   1.284   2.349   1.492  0.0435  0.1160  1.0216
 4958WAT     H115393   1.258   2.417   1.429 -0.1620 -0.9931 -0.1430
 4958WAT     H215394   1.376   2.332   1.471 -0.8522 -2.5634 -1.3078
 4959WAT      O15395   1.964   1.862   0.587 -0.1294 -0.1645  0.4992
 4959WAT     H115396   2.003   1.927   0.645  0.6046 -0.4735  0.3596
 4959WAT     H215397   1.878   1.899   0.565  0.3241  0.8293  0.3196
 4960WAT      O15398   3.267   3.392   0.856 -0.0402 -0.1906 -0.2968
 4960WAT     H115399   3.324   3.399   0.932  1.2581 -0.9335 -1.1741
 4960WAT     H215400   3.314   3.437   0.786 -0.8431 -0.2192 -0.8766
 4961WAT      O15401   2.863   4.228   4.920 -0.1013 -0.7651 -0.0149
 4961WAT     H115402   2.774   4.204   4.895 -0.8071  0.8523  0.7523
 4961WAT     H215403   2.892   4.159   4.979 -0.6180 -1.5968 -0.7170
 4962WAT      O15404   4.300   2.493   5.644  0.1416  0.0214  0.5285
 4962WAT     H115405   4.306   2.434   5.719  0.0546  1.8448  2.0518
 4962WAT     H215406   4.373   2.554   5.655 -0.5345  1.0148 -0.2509
 4963WAT      O15407   1.927   5.419   1.641  0.5597 -0.5613 -0.3795
 4963WAT     H115408   2.015   5.436   1.674  0.0753  2.4073 -0.3482
 4963WAT     H215409   1.869   5.436   1.715 -0.2660  1.9919 -1.5050
 4964WAT      O15410   3.201   4.063   1.177 -0.1493  0.1152  0.1127
 4964WAT     H115411   3.217   4.008   1.100  1.0811 -0.0986  0.4917
 4964WAT     H215412   3.154   4.139   1.143 -1.5183 -0.9632 -0.4876
 4965WAT      O15413   2.669   3.049   4.363 -0.1153 -0.2075  0.0941
 4965WAT     H115414   2.650   2.962   4.328 -0.3922 -0.2181  0.2679
 4965WAT     H215415   2.760   3.044   4.392 -0.6386 -1.0058  1.7643
 4966WAT      O15416   2.837   1.380   0.222  0.1411 -0.2025  0.1634
 4966WAT     H115417   2.849   1.378   0.127  1.2863  0.4671  0.2785
 4966WAT     H215418   2.769   1.315   0.239 -2.6571  2.0816 -1.4904
 4967WAT      O15419   2.784   3.767   5.163 -0.2402 -0.0945 -0.2326
 4967WAT     H115420   2.848   3.716   5.115  2.4278  1.7713  1.1065
 4967WAT     H215421   2.800   3.747   5.255 -0.2178  1.8732  0.2331
 4968WAT      O15422   4.336   0.406   5.209  0.2915 -0.5201  0.0607
 4968WAT     H115423   4.283   0.398   5.288 -1.3697 -0.9929 -1.0541
 4968WAT     H215424   4.372   0.318   5.196  0.2011 -0.5559  0.0519
 4969WAT      O15425   2.237   3.087   0.142  0.0732 -0.0608 -0.1918
 4969WAT     H115426   2.282   3.028   0.203 -1.2919 -1.2329 -0.2393
 4969WAT     H215427   2.250   3.046   0.056  1.0144  0.9594 -0.5524
 4970WAT      O15428   1.222   3.585   2.055 -0.4344  0.0944 -0.8220
 4970WAT     H115429   1.295   3.620   2.106  0.5252 -0.6479 -1.6496
 4970WAT     H215430   1.148   3.640   2.079 -0.0028 -0.1709  1.2695
 4971WAT      O15431   2.951   1.993   1.686  0.3786 -0.4671  0.4027
 4971WAT     H115432   3.002   1.946   1.620 -0.6341 -2.1509  0.7591
 4971WAT     H215433   2.860   1.969   1.667 -0.0629  0.3717  1.3777
 4972WAT      O15434   1.443   2.326   4.869  0.4192  0.1981 -0.4890
 4972WAT     H115435   1.527   2.290   4.898  0.0468 -2.3264 -2.1980
 4972WAT     H215436   1.427   2.284   4.785 -1.5095  2.3678 -1.2957
 4973WAT      O15437   2.579   4.879   0.890 -0.9564 -0.5270 -0.3424
 4973WAT     H115438   2.660   4.828   0.895 -0.2502  0.6028  0.1722
 4973WAT     H215439   2.569   4.917   0.978 -2.4017 -1.1540 -0.2054
 4974WAT      O15440   2.716   4.253   5.518 -0.1598  0.4916 -0.7759
 4974WAT     H115441   2.773   4.306   5.574 -0.0456  0.4704 -0.8708
 4974WAT     H215442   2.679   4.315   5.456 -1.3759  0.7653  0.1796
 4975WAT      O15443   2.502   3.386   1.314 -0.4322  0.1651 -0.2886
 4975WAT     H115444   2.577   3.420   1.265  1.2895 -1.8625  0.7719
 4975WAT     H215445   2.460   3.463   1.352  1.9340  1.2819  0.1957
 4976WAT      O15446   3.861   1.029   0.888 -0.7606  0.1847  0.4811
 4976WAT     H115447   3.826   0.976   0.816  1.0667 -1.7089  0.8737
 4976WAT     H215448   3.866   1.118   0.853 -1.0664 -0.4562 -1.2982
 4977WAT      O15449   4.023   1.208   1.685 -0.1315 -0.2036 -0.0463
 4977WAT     H115450   4.039   1.226   1.593 -2.4670 -1.0501 -0.6813
 4977WAT     H215451   3.928   1.200   1.692 -0.0300 -0.0559  2.4661
 4978WAT      O15452   3.720   2.329   5.818 -0.3585 -0.1906  0.0724
 4978WAT     H115453   3.810   2.306   5.840 -0.0730 -2.4752 -2.8503
 4978WAT     H215454   3.679   2.245   5.795 -3.3513  0.7299  1.4914
 4979WAT      O15455   1.363   0.252   4.576  0.4601 -0.1377 -0.0258
 4979WAT     H115456   1.376   0.174   4.522  0.9826 -0.7814  0.9975
 4979WAT     H215457   1.449   0.270   4.614  0.4370  1.1781 -0.5448
 4980WAT      O15458   2.912   6.026   2.185  0.1264  0.0249 -0.0242
 4980WAT     H115459   2.829   5.990   2.217 -0.5795  1.5420 -0.0706
 4980WAT     H215460   2.887   6.085   2.114  1.0061  2.0693  1.2736
 4981WAT      O15461   3.539   2.364   1.327 -0.5199 -0.2207  0.2870
 4981WAT     H115462   3.587   2.351   1.409  0.1180 -1.1105 -0.2100
 4981WAT     H215463   3.448   2.349   1.350 -0.3154 -0.7569  0.7730
 4982WAT      O15464   2.399   1.314   4.256  0.5114  0.6646  0.2412
 4982WAT     H115465   2.346   1.377   4.207 -1.2894 -0.3197  0.8296
 4982WAT     H215466   2.427   1.250   4.191 -0.1735  0.4637  0.1335
 4983WAT      O15467   3.020   1.403   0.453 -0.3345  0.2365 -0.4157
 4983WAT     H115468   2.975   1.478   0.494 -1.4792 -0.8736  0.4384
 4983WAT     H215469   2.968   1.384   0.375 -0.6244 -0.2609 -0.1075
 4984WAT      O15470   5.588   3.873   5.753  0.1473 -0.2612 -0.0817
 4984WAT     H115471   5.642   3.819   5.811  2.1525 -0.0397 -1.6168
 4984WAT     H215472   5.641   3.882   5.674 -1.7742  0.8230 -1.3153
 4985WAT      O15473   2.519   2.352   1.215  0.0291  0.2262  0.5509
 4985WAT     H115474   2.525   2.447   1.224  0.9298  0.3030 -0.6166
 4985WAT     H215475   2.572   2.318   1.287  1.4516  0.6770 -0.2244
 4986WAT      O15476   2.789   3.071   1.864 -0.1523 -0.3558 -0.3982
 4986WAT     H115477   2.754   3.124   1.936 -1.5070 -2.5920  0.6893
 4986WAT     H215478   2.873   3.039   1.897  0.3589  0.5254 -0.8008
 4987WAT      O15479   1.984   4.205   0.274  0.2928  0.4520 -0.0895
 4987WAT     H115480   1.972   4.245   0.188  0.5898 -0.6830 -0.6636
 4987WAT     H215481   1.917   4.137   0.279  0.6901  0.0813  0.3157
 4988WAT      O15482   1.089   2.093   0.774 -0.0625 -0.5580 -0.2765
 4988WAT     H115483   1.002   2.123   0.801 -0.0793  0.3324 -1.2484
 4988WAT     H215484   1.146   2.112   0.848  0.0037  2.3095 -0.9397
 4989WAT      O15485   4.164   5.048   0.067  0.2146  0.6777  0.4286
 4989WAT     H115486   4.229   5.118   0.070  0.3343  0.6341 -0.6399
 4989WAT     H215487   4.176   5.009  -0.020 -0.0340 -0.4869  0.8972
 4990WAT      O15488   1.215   0.441   4.442 -0.5330 -0.2358 -0.3088
 4990WAT     H115489   1.130   0.450   4.484 -0.7154  0.0694 -0.7417
 4990WAT     H215490   1.254   0.364   4.484 -0.4426  0.4281  0.8689
 4991WAT      O15491   0.585   0.393   4.084 -0.2475 -0.6155 -0.4425
 4991WAT     H115492   0.642   0.376   4.159 -1.1841 -0.1383  0.4050
 4991WAT     H215493   0.607   0.482   4.057 -1.2378 -0.0549  0.5098
 4992WAT      O15494   2.979   1.460   1.125 -0.2656  0.2763  0.2012
 4992WAT     H115495   3.034   1.402   1.178  0.3776  1.6736  1.1084
 4992WAT     H215496   3.013   1.450   1.036 -0.2126 -0.7839  0.3331
 4993WAT      O15497   2.129   0.507   4.669  0.4568  0.1047  0.0816
 4993WAT     H115498   2.096   0.417   4.669  0.7471 -0.0121 -0.5370
 4993WAT     H215499   2.148   0.526   4.761 -0.0174 -0.3129  0.2701
 4994WAT      O15500   2.620   5.288   0.454 -0.0443 -0.8122 -0.3214
 4994WAT     H115501   2.569   5.208   0.441  2.2366 -2.7161  1.4285
 4994WAT     H215502   2.559   5.359   0.436 -1.7753 -2.8827 -3.5042
 4995WAT      O15503   1.508   2.581   2.297  0.2684  0.3319  0.0721
 4995WAT     H115504   1.513   2.637   2.375 -1.3159 -0.4999  0.8167
 4995WAT     H215505   1.579   2.518   2.309 -0.2243 -0.0523  1.0900
 4996WAT      O15506   1.154   0.835   3.816 -0.1874  0.2002  0.7734
 4996WAT     H115507   1.063   0.853   3.791  0.0760  1.1928  0.4607
 4996WAT     H215508   1.149   0.819   3.910 -0.3702  3.2081  1.4058
 4997WAT      O15509   3.304   0.285   0.295  0.0279 -0.6078 -0.8002
 4997WAT     H115510   3.378   0.306   0.237  0.6959  1.4763  0.6608
 4997WAT     H215511   3.253   0.220   0.246  2.8772 -2.2881 -1.8232
 4998WAT      O15512   0.774   1.029   2.895  0.8890 -0.1543  0.2270
 4998WAT     H115513   0.810   1.008   2.981 -0.0720  0.5491  0.8318
 4998WAT     H215514   0.774   0.946   2.848  2.9128 -0.2464  0.3198
 4999WAT      O15515   3.038   1.145   2.461  0.4318  0.1601  0.1068
 4999WAT     H115516   3.023   1.090   2.384 -2.1421  1.0277 -0.1062
 4999WAT     H215517   3.096   1.094   2.517 -0.0465 -1.7607 -1.0761
 5000WAT      O15518   2.448   2.293   0.342 -0.1742  0.0418  0.0925
 5000WAT     H115519   2.403   2.253   0.268  1.6353 -1.1598 -0.4458
 5000WAT     H215520   2.536   2.254   0.339 -0.0594 -0.0566  2.8865
 5001WAT      O15521   3.206   2.797   1.961  0.7699  0.4724  0.4712
 5001WAT     H115522   3.219   2.708   1.994 -0.9325 -0.2525 -0.6619
 5001WAT     H215523   3.258   2.801   1.881 -0.0183  0.0793 -0.0809
 5002WAT      O15524   4.483   1.160   5.052  0.6619  0.2110  0.0368
 5002WAT     H115525   4.408   1.219   5.048  0.8125  0.3816 -0.4930
 5002WAT     H215526   4.480   1.113   4.968  1.0900  0.1564  0.0501
 5003WAT      O15527   4.750   2.883   0.791  0.8904 -0.2667 -0.7594
 5003WAT     H115528   4.697   2.863   0.869  0.0687  1.5716 -0.7973
 5003WAT     H215529   4.744   2.978   0.781  0.4593 -0.4764 -3.4068
 5004WAT      O15530   2.419   1.115   1.637  0.7280  0.4550  0.3319
 5004WAT     H115531   2.429   1.095   1.544 -0.7805 -0.1666  0.2777
 5004WAT     H215532   2.356   1.188   1.640  0.5818  0.3172  0.8678
 5005WAT      O15533   4.131   3.728   0.667  0.0590 -0.0958  0.6432
 5005WAT     H115534   4.145   3.812   0.710  2.4194 -0.0812 -0.0593
 5005WAT     H215535   4.180   3.665   0.719 -1.6206 -1.0903  1.1215
 5006WAT      O15536   2.236   1.566   4.181 -0.4191  0.0739  0.5125
 5006WAT     H115537   2.159   1.605   4.224  0.0962  1.1929  0.4788
 5006WAT     H215538   2.304   1.633   4.190 -0.1142  0.1050 -1.5354
 5007WAT      O15539   2.635   0.921   0.287 -0.5089  0.0577 -0.2977
 5007WAT     H115540   2.630   0.908   0.193 -0.5896 -0.7231 -0.1917
 5007WAT     H215541   2.602   0.839   0.324  0.6459 -0.0977  0.4143
 5008WAT      O15542   2.167   4.066   0.426  0.0062 -0.5781 -0.4993
 5008WAT     H115543   2.122   4.113   0.355 -0.6670  0.5564  0.6381
 5008WAT     H215544   2.155   3.974   0.405 -2.8467 -0.3362 -0.3046
 5009WAT      O15545   2.652   1.656   5.870  0.5977 -0.4411  0.1735
 5009WAT     H115546   2.693   1.680   5.787 -0.1335 -0.5693 -0.2282
 5009WAT     H215547   2.560   1.640   5.848  0.5577 -1.2300  0.8698
 5010WAT      O15548   3.469   0.640   0.124 -0.9345 -0.0728 -0.2318
 5010WAT     H115549   3.447   0.723   0.082 -0.2155 -0.2570 -0.9774
 5010WAT     H215550   3.491   0.665   0.214  0.1218  0.6683 -0.6693
 5011WAT      O15551   2.658   1.787   5.399 -0.5944 -0.4080 -0.2648
 5011WAT     H115552   2.708   1.736   5.335 -0.0706  0.6770 -0.7400
 5011WAT     H215553   2.716   1.858   5.424 -1.3045 -0.0485  0.4125
 5012WAT      O15554   4.984   3.473   3.994 -0.0897  0.1781  0.5722
 5012WAT     H115555   4.927   3.536   4.038  1.4387  1.5565  0.6784
 5012WAT     H215556   4.967   3.487   3.901  0.4841  1.0138  0.5826
 5013WAT      O15557   2.822   1.919   0.606  0.1391  0.4389  0.4670
 5013WAT     H115558   2.854   1.849   0.549  2.4041  0.3649  1.7043
 5013WAT     H215559   2.732   1.895   0.626  0.4630 -1.4368 -0.1724
 5014WAT      O15560   2.086   1.917   0.029  0.0953 -0.2422 -0.3895
 5014WAT     H115561   2.117   2.002  -0.003  1.7101 -0.2529  1.0200
 5014WAT     H215562   2.153   1.855   0.000  0.7066 -0.4992  1.4620
 5015WAT      O15563   2.477   6.080   5.537  0.1810  0.6286  0.0700
 5015WAT     H115564   2.395   6.044   5.501  0.9673  0.5378 -1.7358
 5015WAT     H215565   2.509   6.012   5.595 -2.2115  1.6317  2.8322
 5016WAT      O15566   4.100   3.181   5.866 -0.3281 -0.8329 -0.6289
 5016WAT     H115567   4.045   3.153   5.793 -1.4336 -0.9951  0.2356
 5016WAT     H215568   4.102   3.276   5.861  2.1850 -0.8729 -2.6757
 5017WAT      O15569   1.368   1.381   4.959 -0.1478  0.3304  0.2452
 5017WAT     H115570   1.461   1.405   4.961  0.2038 -1.0447  0.9636
 5017WAT     H215571   1.366   1.295   4.917 -0.5804 -1.6285  3.8875
 5018WAT      O15572   3.549   2.800   0.156  0.3583 -0.0454  0.2005
 5018WAT     H115573   3.547   2.711   0.191  0.1298 -0.6023 -1.1920
 5018WAT     H215574   3.642   2.817   0.139  0.4390  0.1207  0.7833
 5019WAT      O15575   1.661   2.470   5.805  0.5288 -1.2818  0.4389
 5019WAT     H115576   1.751   2.482   5.837  1.0175 -2.0404 -0.5967
 5019WAT     H215577   1.646   2.545   5.748  0.8540 -1.6258 -0.1118
 5020WAT      O15578   3.996   5.430   3.392 -0.6535  0.0907 -0.1653
 5020WAT     H115579   3.906   5.429   3.426 -1.3823  0.8682 -1.9396
 5020WAT     H215580   4.030   5.516   3.416 -0.6632  0.0895 -0.1471
 5021WAT      O15581   2.878   1.920   4.143  0.2409 -0.0530 -0.3587
 5021WAT     H115582   2.940   1.863   4.098 -1.3854 -0.7924 -1.7557
 5021WAT     H215583   2.798   1.916   4.090 -0.8989  1.1583  1.1689
 5022WAT      O15584   2.368   1.114   4.834  0.5253 -0.7831 -0.2487
 5022WAT     H115585   2.320   1.066   4.902 -1.1633 -0.2186 -0.9752
 5022WAT     H215586   2.423   1.176   4.882 -1.0711  0.0073  0.6554
 5023WAT      O15587   3.582   0.810   4.257  0.1345  0.2756  0.2959
 5023WAT     H115588   3.648   0.830   4.324  0.5819  0.7031 -0.2652
 5023WAT     H215589   3.522   0.750   4.301  0.1645  0.8986  1.2250
 5024WAT      O15590   2.666   5.167   2.361 -0.2871  0.4186 -0.2055
 5024WAT     H115591   2.599   5.129   2.417  1.3367 -0.9703  0.8851
 5024WAT     H215592   2.681   5.254   2.397  1.7778 -0.9494  2.6451
 5025WAT      O15593   3.406   5.083   0.620 -0.1151 -0.4097 -0.2329
 5025WAT     H115594   3.357   5.153   0.664  0.4812  0.5101 -1.0012
 5025WAT     H215595   3.497   5.100   0.641 -0.0381 -1.7063  0.6045
 5026WAT      O15596   2.863   0.979   0.455 -0.0882 -0.3439 -0.3430
 5026WAT     H115597   2.783   1.000   0.407 -0.5202 -0.9570  0.0934
 5026WAT     H215598   2.850   1.016   0.542  0.2840 -0.0814 -0.3940
 5027WAT      O15599   3.480   0.222   0.508 -0.6536  0.2807 -0.2245
 5027WAT     H115600   3.547   0.235   0.441 -0.0578 -1.4652 -0.0349
 5027WAT     H215601   3.398   0.240   0.463 -0.2445 -0.5068 -1.3632
 5028WAT      O15602   4.601   3.542   5.561  0.7134 -0.5415 -0.7620
 5028WAT     H115603   4.552   3.467   5.594  0.0107 -0.4740 -1.6145
 5028WAT     H215604   4.681   3.504   5.525 -0.1109 -1.0373 -2.1559
 5029WAT      O15605   2.482   0.455   0.183 -0.0116 -0.3505 -0.3709
 5029WAT     H115606   2.565   0.503   0.176 -0.9290  1.0946 -2.5376
 5029WAT     H215607   2.455   0.469   0.274  0.7495  1.6107 -0.3794
 5030WAT      O15608   1.579   1.086   0.344  0.2327  0.0267  0.4413
 5030WAT     H115609   1.499   1.034   0.344  1.4258 -2.1243 -2.5773
 5030WAT     H215610   1.626   1.058   0.423 -0.2750 -1.6638  0.1791
 5031WAT      O15611   3.608   0.092   4.832 -0.3115  0.6294 -0.1274
 5031WAT     H115612   3.687   0.118   4.785  0.4176  0.8088  1.1522
 5031WAT     H215613   3.609   0.144   4.912 -1.8973  0.8481 -0.2083
 5032WAT      O15614   2.024   5.892   1.462  0.1184 -0.3529 -0.1842
 5032WAT     H115615   1.949   5.941   1.428 -0.5824 -2.2067 -1.4967
 5032WAT     H215616   1.991   5.802   1.472  2.0334 -1.1280 -0.3315
 5033WAT      O15617   2.996   0.544   5.741 -0.3790 -0.2145  0.7112
 5033WAT     H115618   3.052   0.498   5.804  0.4862  0.4858  0.4612
 5033WAT     H215619   2.952   0.473   5.693  1.8078 -0.8667 -0.4652
 5034WAT      O15620   4.721   0.918   3.590  0.2057  0.2634  0.3198
 5034WAT     H115621   4.810   0.884   3.597 -0.1400 -0.5735  0.8477
 5034WAT     H215622   4.673   0.873   3.660 -0.7182  0.4117 -0.2072
 5035WAT      O15623   2.402   2.553   4.371  0.3583  0.1704  0.5806
 5035WAT     H115624   2.384   2.460   4.376 -3.9107  0.7102 -0.7238
 5035WAT     H215625   2.386   2.586   4.459  2.6517 -0.3269  1.2415
 5036WAT      O15626   3.076   5.534   0.657 -0.3185  0.1109  0.4714
 5036WAT     H115627   3.107   5.589   0.729  1.6032 -0.3085 -0.0020
 5036WAT     H215628   3.052   5.596   0.589  1.9886  0.4341 -0.1230
 5037WAT      O15629   2.822   2.074   4.384  0.5064  0.2108 -0.6128
 5037WAT     H115630   2.904   2.075   4.435 -1.0035 -1.5964  2.1257
 5037WAT     H215631   2.841   2.016   4.310  1.4888 -0.9822  0.5129
 5038WAT      O15632   3.512   5.166   3.718 -0.2822 -0.5848  0.0131
 5038WAT     H115633   3.535   5.073   3.707  0.4034 -0.5136  0.7212
 5038WAT     H215634   3.492   5.174   3.811  1.3368  0.3127  0.3215
 5039WAT      O15635   3.089   6.086   2.749  0.4003  0.3327 -0.6295
 5039WAT     H115636   3.018   6.117   2.805  0.4071  0.5801 -0.7571
 5039WAT     H215637   3.169   6.106   2.798  0.4788  1.6957 -1.2570
 5040WAT      O15638   2.344   1.842   4.304  0.0708 -0.3135  0.2277
 5040WAT     H115639   2.379   1.832   4.393 -0.2109 -1.6940  0.1911
 5040WAT     H215640   2.420   1.864   4.251  0.4308 -0.6224  0.6120
 5041WAT      O15641   3.214   2.251   4.815 -0.2099 -0.2454  0.1256
 5041WAT     H115642   3.171   2.264   4.899  1.5027 -2.2627  1.4258
 5041WAT     H215643   3.304   2.279   4.829  0.4164 -1.7433 -0.6051
 5042WAT      O15644   2.919   0.858   4.419  0.1849  0.7656  0.6314
 5042WAT     H115645   2.905   0.952   4.404  0.6841  1.0048  1.5837
 5042WAT     H215646   2.978   0.855   4.494  0.9485 -0.3032  0.0056
 5043WAT      O15647   2.156   1.319   4.427 -0.0412  0.5509  0.0737
 5043WAT     H115648   2.229   1.293   4.371 -0.9440  0.3940 -1.0712
 5043WAT     H215649   2.196   1.377   4.493  1.1928  0.0130 -0.1674
 5044WAT      O15650   2.714   0.884   4.220  0.2053  0.2035  0.3202
 5044WAT     H115651   2.788   0.885   4.282 -0.2051 -0.3841  0.8371
 5044WAT     H215652   2.707   0.974   4.190  1.4751  0.1746 -0.1511
 5045WAT      O15653   1.897   0.794   5.325  0.3136  0.1856 -0.1677
 5045WAT     H115654   1.958   0.861   5.354 -0.2764  1.4541 -1.7067
 5045WAT     H215655   1.810   0.833   5.340 -0.0363 -0.2205 -1.0614
 5046WAT      O15656   2.949   2.223   1.535 -0.2392  0.2600  0.6225
 5046WAT     H115657   2.899   2.168   1.475 -2.5859 -0.1071  2.7659
 5046WAT     H215658   2.986   2.161   1.598 -1.8760  0.9506  2.3366
 5047WAT      O15659   1.506   0.451   4.369 -0.1571  0.4386  0.7801
 5047WAT     H115660   1.422   0.405   4.381  0.3751 -0.6711  0.4030
 5047WAT     H215661   1.570   0.396   4.414  0.3044  1.5874  1.5762
 5048WAT      O15662   2.072   1.002   4.372 -0.3179  0.3499 -0.2811
 5048WAT     H115663   2.155   0.995   4.419 -0.7857  1.2958  0.7149
 5048WAT     H215664   2.051   0.912   4.347  1.5700  0.2133 -1.5773
 5049WAT      O15665   3.819   0.857   3.712  0.0812  0.3070 -0.2778
 5049WAT     H115666   3.792   0.878   3.801 -1.3840 -0.0207 -0.5999
 5049WAT     H215667   3.736   0.851   3.664  0.6194 -2.4147 -1.0154
 5050WAT      O15668   2.296   1.691   3.934  0.1132 -0.2808  0.2611
 5050WAT     H115669   2.256   1.650   3.857 -0.4015 -0.4769  0.6270
 5050WAT     H215670   2.239   1.664   4.007 -0.0862  0.8696  0.5427
 5051WAT      O15671   2.540   1.261   5.000 -0.7706  0.4929 -0.4928
 5051WAT     H115672   2.516   1.352   5.018 -1.7530  0.0552  0.5131
 5051WAT     H215673   2.531   1.217   5.084 -1.2852 -0.7450 -1.1783
 5052WAT      O15674   3.653   5.760   4.346  0.2475  0.1326  0.1609
 5052WAT     H115675   3.714   5.725   4.410  0.2355 -0.4617 -0.1498
 5052WAT     H215676   3.568   5.725   4.371  0.1655  0.2809  0.0955
 5053WAT      O15677   2.534   5.692   4.973  0.6415  0.1259 -0.6179
 5053WAT     H115678   2.506   5.756   4.908 -0.4251  0.8898  0.5404
 5053WAT     H215679   2.628   5.681   4.958  0.1433 -1.0551 -3.3896
 5054WAT      O15680   3.242   5.164   3.211  0.8146  0.1988 -0.1185
 5054WAT     H115681   3.305   5.096   3.186 -0.2196 -0.1061 -2.1090
 5054WAT     H215682   3.221   5.208   3.128  0.2440  1.9001  0.8813
 5055WAT      O15683   4.270   1.698   5.533  0.0054 -0.2862 -0.3177
 5055WAT     H115684   4.359   1.731   5.546  0.2649 -0.2065 -2.0817
 5055WAT     H215685   4.219   1.776   5.511 -0.2656 -0.4893 -0.4077
 5056WAT      O15686   4.498   0.636   4.054 -0.0179 -0.3004  0.0536
 5056WAT     H115687   4.475   0.620   4.145 -2.0606  0.5693 -0.2578
 5056WAT     H215688   4.514   0.549   4.017 -2.9164 -1.0421  0.3549
 5057WAT      O15689   2.506   5.550   3.743 -0.2671  0.9171  0.4800
 5057WAT     H115690   2.465   5.517   3.823  0.5378  0.2972  0.6606
 5057WAT     H215691   2.544   5.472   3.703 -0.4505  1.2630 -0.3885
 5058WAT      O15692   3.215   0.497   0.176  0.3265  0.3527 -0.2919
 5058WAT     H115693   3.289   0.557   0.187  0.1508  0.5026  0.0954
 5058WAT     H215694   3.226   0.433   0.246 -0.4790  0.9755  0.4167
 5059WAT      O15695   1.542   1.068   2.633 -0.6028 -0.0277  0.1324
 5059WAT     H115696   1.604   0.997   2.649 -0.6267  0.1622  1.1921
 5059WAT     H215697   1.585   1.125   2.569  0.1816 -0.0710  0.6149
 5060WAT      O15698   2.795   1.334   4.230 -0.3254 -0.5404  0.3626
 5060WAT     H115699   2.793   1.295   4.142 -0.7391 -0.3780  0.2955
 5060WAT     H215700   2.831   1.421   4.216 -0.6232 -0.4242  0.3162
 5061WAT      O15701   5.583   4.943   5.955  0.0663 -0.0269 -0.0581
 5061WAT     H115702   5.618   4.938   5.866 -1.2055  0.3182 -0.6005
 5061WAT     H215703   5.519   5.014   5.951 -0.4630 -0.4275  0.9744
 5062WAT      O15704   2.977   5.411   2.755  0.1455  0.4504 -0.1361
 5062WAT     H115705   3.005   5.370   2.673 -0.7460  0.0908 -0.2780
 5062WAT     H215706   3.004   5.502   2.747 -0.1233  0.4696 -0.9364
 5063WAT      O15707   3.758   5.302   4.305  0.4052 -0.5753  0.1169
 5063WAT     H115708   3.799   5.288   4.390  0.8155  2.9079  0.6016
 5063WAT     H215709   3.666   5.320   4.326  0.2428 -0.8996 -0.3004
 5064WAT      O15710   4.316   1.631   0.862 -0.0959 -0.3779  0.0799
 5064WAT     H115711   4.250   1.566   0.884 -0.6907  0.9466  2.6483
 5064WAT     H215712   4.309   1.642   0.767 -2.6766 -1.2137  0.1061
 5065WAT      O15713   2.759   1.349   5.246  0.8099  0.4316  0.7947
 5065WAT     H115714   2.714   1.318   5.324  1.9701  0.9712  1.7206
 5065WAT     H215715   2.700   1.413   5.207 -1.0560 -1.8904 -0.4375
 5066WAT      O15716   0.343   1.993   4.249  0.8646  0.4444 -0.4247
 5066WAT     H115717   0.435   1.968   4.251  0.3995 -1.4219 -0.6822
 5066WAT     H215718   0.302   1.931   4.189 -0.9416 -0.2271  1.3706
 5067WAT      O15719   1.015   1.270   3.599 -0.0514 -0.1008 -0.5843
 5067WAT     H115720   0.968   1.332   3.654 -2.5562 -1.9947 -0.3998
 5067WAT     H215721   1.051   1.206   3.660  1.6047  0.5425 -0.8424
 5068WAT      O15722   4.266   1.983   5.170  0.0194 -0.1537 -0.1878
 5068WAT     H115723   4.342   1.927   5.182 -0.5060 -0.9069 -0.2757
 5068WAT     H215724   4.191   1.923   5.174 -0.7476  0.8401  2.3952
 5069WAT      O15725   4.293   1.295   3.430  0.1658  0.0933  0.0157
 5069WAT     H115726   4.297   1.274   3.523 -0.7443 -0.2978 -0.0302
 5069WAT     H215727   4.319   1.214   3.386  2.3879  0.7711 -0.0720
 5070WAT      O15728   2.439   6.106   4.446  0.0542  0.3308 -0.3425
 5070WAT     H115729   2.446   6.166   4.520  0.8452 -0.9050  0.6315
 5070WAT     H215730   2.384   6.151   4.383 -0.8725  1.3025  1.1188
 5071WAT      O15731   3.143   3.841   4.885 -0.0657 -0.5320  0.3299
 5071WAT     H115732   3.087   3.867   4.812  0.3006 -0.3174  0.1209
 5071WAT     H215733   3.100   3.877   4.962  0.5678  0.9523  0.0228
 5072WAT      O15734   1.834   5.914   2.095 -0.3141  0.1998 -0.0208
 5072WAT     H115735   1.820   5.969   2.018  1.7061 -1.0086 -1.3697
 5072WAT     H215736   1.841   5.825   2.060  0.3435 -0.4288  1.5939
 5073WAT      O15737   4.988   4.519   0.191 -0.0431 -0.2438 -0.2181
 5073WAT     H115738   4.962   4.604   0.228  1.3213 -0.0496  0.3813
 5073WAT     H215739   4.947   4.518   0.105  1.3676  1.8865 -1.0166
 5074WAT      O15740   3.006   2.327   4.607  0.1974  0.1271 -0.1367
 5074WAT     H115741   2.919   2.339   4.645  0.6957 -0.4850  1.2438
 5074WAT     H215742   3.065   2.322   4.682  1.4421  0.5554 -1.0456
 5075WAT      O15743   3.981   2.423   3.061  0.0019  0.3606  0.1172
 5075WAT     H115744   3.932   2.422   2.979  1.0614 -0.4881 -0.5457
 5075WAT     H215745   4.026   2.338   3.063  0.5594  0.6581  1.2223
 5076WAT      O15746   5.166   5.325   3.759 -0.1461  0.1165  0.2825
 5076WAT     H115747   5.145   5.394   3.822 -0.7880 -1.3860  1.7834
 5076WAT     H215748   5.214   5.260   3.809 -2.3726 -2.0613 -0.1989
 5077WAT      O15749   5.632   4.909   5.031 -0.1477  0.2390 -0.5879
 5077WAT     H115750   5.726   4.887   5.034 -0.4632 -1.2863 -0.9197
 5077WAT     H215751   5.605   4.883   4.943 -1.2994 -1.2365  0.1661
 5078WAT      O15752   2.354   0.464   4.491 -0.3188 -0.5411  0.2134
 5078WAT     H115753   2.300   0.508   4.557 -1.2458  0.1674 -0.9830
 5078WAT     H215754   2.437   0.511   4.493 -1.0623  0.8454 -0.5653
 5079WAT      O15755   3.111   1.778   4.092 -0.2258  0.1813  0.6859
 5079WAT     H115756   3.139   1.821   4.172  0.8530 -1.2440  1.0997
 5079WAT     H215757   3.192   1.759   4.044 -0.6596 -1.3737  0.5236
 5080WAT      O15758   1.033   1.828   4.225 -1.0522  0.6799 -0.4247
 5080WAT     H115759   1.004   1.871   4.144 -2.1122  2.3081  0.7529
 5080WAT     H215760   0.970   1.857   4.291 -0.1248 -0.4874  1.0278
 5081WAT      O15761   3.434   1.765   4.868  0.7527 -0.0667 -0.2852
 5081WAT     H115762   3.441   1.821   4.791  1.3073 -1.1145 -1.0297
 5081WAT     H215763   3.347   1.725   4.861  0.7539 -0.0654 -0.3078
 5082WAT      O15764   5.047   5.370   4.873 -0.0542  0.3379 -0.1180
 5082WAT     H115765   4.990   5.296   4.890 -0.8685  0.7377 -1.0430
 5082WAT     H215766   5.135   5.333   4.872 -0.5340 -0.8780 -1.8904
 5083WAT      O15767   3.222   0.779   3.723  0.2379  0.5864  0.0872
 5083WAT     H115768   3.282   0.762   3.650 -0.7241 -1.5959 -0.2515
 5083WAT     H215769   3.247   0.867   3.754  3.3782 -0.0839 -0.2307
 5084WAT      O15770   5.068   1.535   4.506  0.1286 -0.0349 -0.2880
 5084WAT     H115771   5.159   1.513   4.524 -0.4898 -0.7194  2.3323
 5084WAT     H215772   5.022   1.452   4.512 -0.6573  0.2341 -2.0204
 5085WAT      O15773   4.435   5.660   4.209  0.3014 -0.3067  0.4377
 5085WAT     H115774   4.352   5.623   4.241 -0.5029  0.5261 -0.5962
 5085WAT     H215775   4.480   5.587   4.168 -0.3972 -0.5643  0.1033
 5086WAT      O15776   3.662   0.304   4.315 -0.2098 -0.3411  0.1588
 5086WAT     H115777   3.595   0.321   4.249 -0.7800 -2.0010  0.2722
 5086WAT     H215778   3.616   0.313   4.398  0.2383  0.5951  0.3257
 5087WAT      O15779   4.094   1.082   2.971 -0.4836  0.5290  0.3363
 5087WAT     H115780   4.180   1.044   2.991 -1.1765 -0.0848  2.4886
 5087WAT     H215781   4.090   1.160   3.026 -0.9993  1.0069 -0.3675
 5088WAT      O15782   1.632   0.232   4.442  0.3198  0.2644 -0.1483
 5088WAT     H115783   1.651   0.235   4.536 -1.5044 -0.4279  0.2713
 5088WAT     H215784   1.609   0.141   4.425  0.5992  0.3921 -1.2843
 5089WAT      O15785   3.862   5.758   3.101 -0.5110 -0.2878  0.1426
 5089WAT     H115786   3.835   5.810   3.176 -0.3770 -1.0626  0.7359
 5089WAT     H215787   3.927   5.812   3.056 -1.0299  0.4285  0.2359
 5090WAT      O15788   3.532   2.388   4.114 -0.2613  0.1232  0.1869
 5090WAT     H115789   3.571   2.437   4.186 -0.0106  0.5035 -0.2027
 5090WAT     H215790   3.602   2.381   4.049  0.1108 -1.7989  0.7181
 5091WAT      O15791   1.874   1.220   4.366 -0.2499 -0.5602 -0.6311
 5091WAT     H115792   1.943   1.155   4.380 -0.7751 -1.3587 -1.6353
 5091WAT     H215793   1.901   1.267   4.288  0.9263  1.5482  0.9528
 5092WAT      O15794   1.880   1.974   2.576  0.1541  0.6004 -0.1427
 5092WAT     H115795   1.899   1.984   2.483 -0.5310 -0.4237 -0.4013
 5092WAT     H215796   1.792   2.009   2.587 -0.0278  0.1111 -0.0076
 5093WAT      O15797   2.913   1.168   3.385 -0.0320 -0.1056  0.1787
 5093WAT     H115798   2.909   1.227   3.309  1.3757  1.0041  0.9308
 5093WAT     H215799   2.824   1.134   3.393 -0.5245  0.7864 -1.1640
 5094WAT      O15800   3.260   1.546   5.768 -0.0361 -0.0171 -0.0354
 5094WAT     H115801   3.173   1.525   5.802  0.5450 -0.1550  1.4463
 5094WAT     H215802   3.262   1.641   5.765 -0.1177 -0.0039  0.2742
 5095WAT      O15803   3.446   1.050   2.820 -0.0222 -0.0361  0.2047
 5095WAT     H115804   3.362   1.048   2.867  0.8803 -0.2975  1.8986
 5095WAT     H215805   3.489   0.968   2.845  0.5330 -0.1644 -1.0894
 5096WAT      O15806   4.214   1.500   4.571 -0.2400 -0.0874 -1.0998
 5096WAT     H115807   4.133   1.485   4.620 -0.2523 -0.4270 -1.2230
 5096WAT     H215808   4.284   1.482   4.634 -0.2574  0.2635 -0.9759
 5097WAT      O15809   3.126   0.390   5.940 -0.1928  0.7505 -0.2180
 5097WAT     H115810   3.136   0.436   6.023  0.2664 -0.0466  0.1842
 5097WAT     H215811   3.078   0.310   5.963  1.0686 -0.1178 -0.4620
 5098WAT      O15812   2.056   1.436   2.362 -0.1623 -0.3103 -0.0405
 5098WAT     H115813   2.016   1.509   2.408  2.9426  0.7175  1.3230
 5098WAT     H215814   2.043   1.361   2.420 -0.1265  0.0056  0.3787
 5099WAT      O15815   4.284   1.279   2.020  0.0930  0.2603 -0.4512
 5099WAT     H115816   4.355   1.325   2.066  0.3375 -1.2741  0.7996
 5099WAT     H215817   4.244   1.224   2.088 -1.8474  0.5628 -1.3058
 5100WAT      O15818   3.341   4.254   4.910 -0.5942 -0.5471 -0.4066
 5100WAT     H115819   3.436   4.263   4.920 -0.8278  2.5190 -0.0190
 5100WAT     H215820   3.310   4.232   4.997 -0.3401 -0.2840 -0.2462
 5101WAT      O15821   4.593   0.695   3.756 -0.4689  0.2180  0.6104
 5101WAT     H115822   4.576   0.674   3.848 -0.2126 -0.9533  0.4020
 5101WAT     H215823   4.652   0.626   3.726  1.7773  2.1144  0.3347
 5102WAT      O15824   5.142   4.755   4.521  0.6583  0.1674  0.2762
 5102WAT     H115825   5.050   4.762   4.545  0.2510  1.6878 -1.5147
 5102WAT     H215826   5.189   4.764   4.604 -0.7557  1.6518  0.9756
 5103WAT      O15827   4.407   5.751   1.484 -0.0342  0.0562 -0.0417
 5103WAT     H115828   4.461   5.828   1.503 -0.0095 -0.1097  0.5902
 5103WAT     H215829   4.320   5.774   1.519 -0.5039  0.4888 -1.4214
 5104WAT      O15830   4.654   0.733   3.189 -0.5686 -0.2401 -0.1231
 5104WAT     H115831   4.719   0.761   3.124  0.7026 -0.2894  1.0749
 5104WAT     H215832   4.624   0.814   3.229 -0.6556 -0.2684 -0.1317
 5105WAT      O15833   2.714   1.540   3.894 -0.1265  0.2869  0.4520
 5105WAT     H115834   2.790   1.483   3.909  0.2931  0.7490  0.1407
 5105WAT     H215835   2.662   1.495   3.828  0.2151  0.2810  0.1874
 5106WAT      O15836   2.549   2.080   4.348 -0.3253  0.1268 -0.5062
 5106WAT     H115837   2.591   2.036   4.422  0.8221  2.1689  0.1484
 5106WAT     H215838   2.566   2.023   4.273 -0.8917 -1.6343  0.6433
 5107WAT      O15839   3.582   0.320   4.019  0.1499 -0.3172 -0.0299
 5107WAT     H115840   3.569   0.384   3.948  0.6661 -0.3316 -0.1419
 5107WAT     H215841   3.661   0.272   3.993 -1.3921 -2.4495 -1.0160
 5108WAT      O15842   2.015   2.232   3.028  0.8669  0.4225 -0.0821
 5108WAT     H115843   2.079   2.292   2.989  1.0694 -0.3624 -0.9813
 5108WAT     H215844   2.045   2.145   3.001 -0.1480 -0.0027  0.1409
 5109WAT      O15845   3.680   4.735   5.406  0.4203 -0.1796 -0.2295
 5109WAT     H115846   3.652   4.651   5.370  0.8501 -1.2934  1.8568
 5109WAT     H215847   3.769   4.719   5.438  0.7240  1.2505 -0.2658
 5110WAT      O15848   4.441   0.146   5.184  0.1235 -0.0740  0.2614
 5110WAT     H115849   4.481   0.082   5.125  0.6365 -1.1864  1.7354
 5110WAT     H215850   4.494   0.139   5.264 -1.0159  0.8228  1.1093
 5111WAT      O15851   2.288   0.019   2.106 -0.0103  0.3156  0.0635
 5111WAT     H115852   2.240   0.090   2.149  1.2083  1.8086 -0.9429
 5111WAT     H215853   2.292   0.045   2.014  0.2997 -1.1649 -0.3627
 5112WAT      O15854   2.120   0.246   2.177 -0.2096 -0.7239 -0.7737
 5112WAT     H115855   2.048   0.193   2.145 -1.1357 -0.0861  0.1735
 5112WAT     H215856   2.133   0.312   2.109  0.6408 -1.8481 -1.7375
 5113WAT      O15857   1.802   0.280   2.940 -0.1137  0.4119  0.4443
 5113WAT     H115858   1.754   0.236   2.871  0.5387  0.8700 -0.3172
 5113WAT     H215859   1.759   0.252   3.021  0.7654 -2.2448  0.0705
 5114WAT      O15860   3.534   1.704   4.487 -0.3293 -0.6961 -0.2551
 5114WAT     H115861   3.450   1.692   4.443 -1.4761 -0.3963  1.7155
 5114WAT     H215862   3.517   1.770   4.554  0.9703 -1.9639  1.4317
 5115WAT      O15863   4.852   1.835   5.118 -0.3655 -0.1588  0.1479
 5115WAT     H115864   4.855   1.926   5.087 -1.3573 -0.7839 -1.8797
 5115WAT     H215865   4.786   1.836   5.188  1.2589  1.0792  1.7919
 5116WAT      O15866   2.636   0.330   2.748  0.1687  0.0805  0.5385
 5116WAT     H115867   2.691   0.400   2.782  2.1860 -1.1011 -0.1149
 5116WAT     H215868   2.600   0.287   2.825  0.0464  0.9624  0.9749
 5117WAT      O15869   4.629   5.908   4.978  0.0768  0.1854  0.4201
 5117WAT     H115870   4.628   6.004   4.968 -0.4657  0.0437 -1.1802
 5117WAT     H215871   4.705   5.880   4.928 -0.9405 -0.3593 -0.8589
 5118WAT      O15872   1.828   0.947   2.611  0.5792  0.1027 -0.6817
 5118WAT     H115873   1.844   0.859   2.576  2.2749 -0.9369  2.3411
 5118WAT     H215874   1.813   0.933   2.705  1.1695  3.0713 -0.0475
 5119WAT      O15875   2.300   1.138   1.317  0.2050 -0.2670  0.2251
 5119WAT     H115876   2.223   1.186   1.287 -0.0764 -1.1460 -0.5082
 5119WAT     H215877   2.374   1.181   1.275  0.3460  1.6585  2.2396
 5120WAT      O15878   3.400   3.516   4.593 -0.6582  0.6465 -0.4903
 5120WAT     H115879   3.331   3.542   4.532 -2.3958  0.0578  1.1488
 5120WAT     H215880   3.406   3.590   4.654 -1.3404 -0.1820  0.6054
 5121WAT      O15881   3.703   0.854   1.774 -0.5474 -0.6268  0.0621
 5121WAT     H115882   3.755   0.871   1.852 -1.0175 -0.3050  0.3135
 5121WAT     H215883   3.699   0.938   1.728  0.3471 -0.9856 -0.7017
 5122WAT      O15884   4.485   0.780   3.489 -0.8005  0.4944  0.4342
 5122WAT     H115885   4.554   0.846   3.486 -1.0136  0.7648  1.4040
 5122WAT     H215886   4.490   0.744   3.577  1.6693 -3.3379 -1.0058
 5123WAT      O15887   3.705   0.408   1.959  0.2896 -0.2721  0.0594
 5123WAT     H115888   3.695   0.452   1.875  0.3064 -1.2075 -0.4504
 5123WAT     H215889   3.631   0.438   2.012  0.8009  1.0453  0.0480
 5124WAT      O15890   2.095   0.795   5.100  0.0447  0.3548 -0.3717
 5124WAT     H115891   2.136   0.745   5.171  0.1918 -0.9910 -1.3811
 5124WAT     H215892   2.010   0.821   5.136  0.1877 -0.1495  0.3654
 5125WAT      O15893   2.074   2.401   2.239 -0.1881 -0.3523 -0.5018
 5125WAT     H115894   2.166   2.394   2.215  0.2462  0.0401  0.9567
 5125WAT     H215895   2.027   2.381   2.158  1.1694  1.4959 -1.8250
 5126WAT      O15896   2.159   1.065   4.090 -0.3653  0.0564  0.5430
 5126WAT     H115897   2.073   1.061   4.048  0.1790  0.0854 -0.6142
 5126WAT     H215898   2.141   1.097   4.179 -1.7787 -1.9166  1.0352
 5127WAT      O15899   2.526   1.334   2.847 -0.0124  0.3250  0.1580
 5127WAT     H115900   2.585   1.404   2.819 -1.0319  0.7395 -1.0655
 5127WAT     H215901   2.460   1.330   2.778  0.1946 -2.0807 -0.0037
 5128WAT      O15902   4.127   0.723   4.770  0.0773 -0.1771  0.1095
 5128WAT     H115903   4.122   0.814   4.744  1.3094 -0.1201  0.0155
 5128WAT     H215904   4.132   0.725   4.866  3.2979  0.0918  0.0369
 5129WAT      O15905   0.696   1.627   2.588  0.2257  0.2553 -0.1407
 5129WAT     H115906   0.690   1.656   2.497  0.9288 -1.2756 -0.7113
 5129WAT     H215907   0.773   1.570   2.590 -0.7944 -1.1550  0.9959
 5130WAT      O15908   2.603   5.662   5.338 -0.0967  0.5808  0.3210
 5130WAT     H115909   2.552   5.593   5.295  0.0364  0.7551 -0.1219
 5130WAT     H215910   2.692   5.627   5.342 -0.2755  0.1868  1.2898
 5131WAT      O15911   1.045   1.549   2.405 -0.4559  0.9014  0.6561
 5131WAT     H115912   0.989   1.537   2.482 -1.8931 -0.9484 -0.6053
 5131WAT     H215913   1.038   1.467   2.357  0.1694  2.0993 -1.6249
 5132WAT      O15914   2.611   0.964   2.138 -0.2661 -0.7118  0.0861
 5132WAT     H115915   2.547   0.980   2.208  0.2498 -0.2767  0.4676
 5132WAT     H215916   2.567   0.995   2.058  0.1714  1.4162  0.6136
 5133WAT      O15917   2.838   0.020   3.224  0.4914  0.1964 -0.1317
 5133WAT     H115918   2.790   0.051   3.301 -3.9050  0.6311 -2.7129
 5133WAT     H215919   2.861   0.100   3.176  0.4281 -0.1362 -0.7242
 5134WAT      O15920   4.354   1.556   2.963 -0.1784  0.2124 -0.3015
 5134WAT     H115921   4.371   1.546   3.057 -0.0488 -2.5482 -0.5379
 5134WAT     H215922   4.435   1.593   2.929  0.2326  0.1089  0.5302
 5135WAT      O15923   1.451   0.897   4.116  0.1740  0.2696  0.5307
 5135WAT     H115924   1.418   0.851   4.193 -0.1321  0.1688  0.3409
 5135WAT     H215925   1.384   0.963   4.097  0.5816  0.7621  0.7680
 5136WAT      O15926   1.316   1.499   3.174 -0.0369  0.2038  0.7406
 5136WAT     H115927   1.362   1.504   3.091 -0.6076 -0.4791  0.3789
 5136WAT     H215928   1.315   1.406   3.196  1.3728  0.4876  2.2372
 5137WAT      O15929   2.141   1.347   5.468  0.3758  0.2939  0.1316
 5137WAT     H115930   2.225   1.303   5.454 -0.4042 -0.8466 -1.1976
 5137WAT     H215931   2.076   1.277   5.467 -0.7285  1.2810 -0.1355
 5138WAT      O15932   3.606   1.421   3.931  0.3668  0.2890 -0.0280
 5138WAT     H115933   3.670   1.486   3.960  2.9125 -0.8827 -2.5238
 5138WAT     H215934   3.658   1.343   3.913 -2.3387 -1.9450  1.2061
 5139WAT      O15935   1.925   1.900   4.677 -0.3724  0.5556 -0.1094
 5139WAT     H115936   1.878   1.826   4.639  1.5741 -1.4270  1.0998
 5139WAT     H215937   1.957   1.867   4.761  2.0371  2.1891 -0.2953
 5140WAT      O15938   4.481   3.845   4.377 -0.1446  0.3673  0.0312
 5140WAT     H115939   4.424   3.917   4.352 -1.0671  0.1926  1.4813
 5140WAT     H215940   4.468   3.779   4.308  1.2028  1.7857 -1.6526
 5141WAT      O15941   5.249   1.454   3.956  0.3335  0.2256 -0.0958
 5141WAT     H115942   5.178   1.476   4.016  0.1057 -1.8205  0.4841
 5141WAT     H215943   5.226   1.497   3.874 -1.4027 -0.0942  0.1854
 5142WAT      O15944   4.255   0.191   4.059 -0.0305 -0.2167  0.7163
 5142WAT     H115945   4.171   0.170   4.101 -1.5942  2.2989 -0.8676
 5142WAT     H215946   4.268   0.284   4.076 -0.6816  0.9779 -3.8934
 5143WAT      O15947   3.173   0.201   3.068 -0.1655 -0.1426  0.2208
 5143WAT     H115948   3.110   0.229   3.001 -0.7268 -0.1835  0.7197
 5143WAT     H215949   3.130   0.221   3.151  1.0061  0.9819  0.5781
 5144WAT      O15950   3.310   0.359   2.662  0.0995 -0.1600 -0.2358
 5144WAT     H115951   3.220   0.328   2.660  0.3620 -0.9818  0.4649
 5144WAT     H215952   3.362   0.282   2.683  1.0403  0.1656 -1.2447
 5145WAT      O15953   3.408   0.777   1.532 -0.0226 -0.1790  0.4341
 5145WAT     H115954   3.342   0.725   1.577  0.8395  0.6535  2.8402
 5145WAT     H215955   3.386   0.868   1.554  0.4338  0.2907 -0.9088
 5146WAT      O15956   6.044   0.154   3.778  0.3663 -0.3276 -0.0999
 5146WAT     H115957   6.101   0.227   3.753  0.0614  0.5090  1.4616
 5146WAT     H215958   6.059   0.088   3.711  0.6147  1.1827 -1.6134
 5147WAT      O15959   1.059   4.533   2.529  0.0174  0.6768 -0.0909
 5147WAT     H115960   0.976   4.513   2.487  0.5722  1.0839 -1.4274
 5147WAT     H215961   1.119   4.465   2.497  0.6691  1.5087 -0.6852
 5148WAT      O15962   2.383   0.387   3.662 -0.3820  0.1260  0.1008
 5148WAT     H115963   2.333   0.333   3.724  1.3553 -0.3659  1.1575
 5148WAT     H215964   2.418   0.458   3.716  0.1943  0.3433 -0.5521
 5149WAT      O15965   3.809   6.104   5.131  0.1029 -0.0529  0.9912
 5149WAT     H115966   3.850   6.081   5.214 -0.9310 -1.5780  1.1171
 5149WAT     H215967   3.717   6.080   5.142 -0.2706  0.6861 -0.2470
 5150WAT      O15968   2.234   5.542   3.900  0.4444 -0.2695 -0.3557
 5150WAT     H115969   2.140   5.541   3.879  0.6817 -1.2621 -1.4545
 5150WAT     H215970   2.253   5.453   3.928  1.3354 -0.4626 -1.5037
 5151WAT      O15971   2.863   0.031   2.857 -0.1574 -0.3450 -0.2523
 5151WAT     H115972   2.843   0.074   2.940  1.3636 -0.4847  0.2173
 5151WAT     H215973   2.778   0.023   2.813 -0.7247  1.5925  0.3782
 5152WAT      O15974   3.688   1.448   4.547 -0.2884 -0.0704  1.3163
 5152WAT     H115975   3.691   1.405   4.462  1.3188  1.1491  0.6968
 5152WAT     H215976   3.633   1.524   4.534 -0.5173 -0.1948  1.5388
 5153WAT      O15977   2.893   0.578   5.184  0.0858 -0.1699  0.1382
 5153WAT     H115978   2.819   0.537   5.228 -0.9273  2.6192  1.2684
 5153WAT     H215979   2.905   0.527   5.104 -1.8310 -1.8164  0.8084
 5154WAT      O15980   1.511   5.790   2.206 -0.1235 -0.4951 -0.1430
 5154WAT     H115981   1.526   5.738   2.285  1.8814  1.6697  1.0735
 5154WAT     H215982   1.450   5.858   2.234  0.2685  0.0387 -0.5678
 5155WAT      O15983   3.238   0.244   1.035  0.1629  0.3890 -0.6397
 5155WAT     H115984   3.206   0.274   0.950 -1.5799  1.0777  0.2260
 5155WAT     H215985   3.267   0.324   1.079  0.4337  0.1189 -0.3248
 5156WAT      O15986   1.080   6.136   4.003  0.0164  0.1445  0.1050
 5156WAT     H115987   1.013   6.071   4.024  1.9121 -1.4505  1.7075
 5156WAT     H215988   1.093   6.127   3.909  0.1974 -1.8544  0.2691
 5157WAT      O15989   3.955   1.723   4.178  0.3607  0.4832  0.4819
 5157WAT     H115990   3.895   1.689   4.245  0.1713  0.1847  0.1679
 5157WAT     H215991   3.933   1.815   4.170  0.5801  0.5837  1.0356
 5158WAT      O15992   4.051   2.426   4.558  0.3152 -0.2699 -0.3072
 5158WAT     H115993   4.096   2.452   4.477  0.9845 -0.4065  0.0128
 5158WAT     H215994   4.005   2.346   4.535 -0.2460  0.1810 -0.7989
 5159WAT      O15995   4.170   0.113   3.602 -0.4243 -0.1357  0.2680
 5159WAT     H115996   4.157   0.096   3.508  0.8013 -0.2591  0.1093
 5159WAT     H215997   4.099   0.064   3.644 -1.5239  0.6297 -0.6248
 5160WAT      O15998   4.434   0.624   4.328 -0.5441  0.5816 -0.1723
 5160WAT     H115999   4.383   0.552   4.364 -2.1911  1.1577 -1.2293
 5160WAT     H216000   4.492   0.651   4.400 -0.1372 -1.5198  0.3482
 5161WAT      O16001   2.548   0.735   3.191  0.2408 -0.0482 -0.3662
 5161WAT     H116002   2.498   0.662   3.154 -3.2375  0.9716  1.7485
 5161WAT     H216003   2.567   0.792   3.116  0.6401 -1.7769 -1.6444
 5162WAT      O16004   1.378   0.423   3.097 -0.6575 -0.0740  0.3981
 5162WAT     H116005   1.448   0.455   3.155 -0.2570  1.3173 -0.7857
 5162WAT     H216006   1.389   0.474   3.017 -2.8136 -0.0774  0.0461
 5163WAT      O16007   3.144   1.306   3.797  0.1799  1.2084  0.4824
 5163WAT     H116008   3.224   1.358   3.804 -0.8200  2.9923 -0.5640
 5163WAT     H216009   3.132   1.291   3.704  0.9247 -1.8527  0.7537
 5164WAT      O16010   5.120   0.678   2.811  0.3490  0.5384  0.1632
 5164WAT     H116011   5.058   0.605   2.803 -0.0474  0.9907 -1.0835
 5164WAT     H216012   5.161   0.665   2.896 -0.9918 -0.1441  0.7358
 5165WAT      O16013   2.626   6.025   2.707 -0.0264 -0.1679  0.1354
 5165WAT     H116014   2.545   6.045   2.755  0.1715 -0.6897  0.6965
 5165WAT     H216015   2.596   5.990   2.623 -0.3769  0.4858 -0.0265
 5166WAT      O16016   1.820   0.605   5.013  0.3101 -0.2043 -0.4647
 5166WAT     H116017   1.781   0.675   4.961 -1.0785 -0.8627 -0.3545
 5166WAT     H216018   1.862   0.548   4.949 -0.2016 -0.2761 -0.7420
 5167WAT      O16019   2.932   2.188   4.895 -0.0274 -0.1261  0.4204
 5167WAT     H116020   2.981   2.154   4.969  3.3206  1.2387 -0.9872
 5167WAT     H216021   2.938   2.283   4.903 -0.5328  0.0496 -1.0085
 5168WAT      O16022   4.615   5.257   4.866 -0.2699  0.0863 -0.3582
 5168WAT     H116023   4.562   5.328   4.831 -1.0147  0.0558  0.6438
 5168WAT     H216024   4.632   5.200   4.791 -1.9339 -0.0651 -0.6619
 5169WAT      O16025   4.153   1.231   5.291 -0.2223 -0.2738 -0.5473
 5169WAT     H116026   4.179   1.310   5.243 -0.0219  0.0006  0.0098
 5169WAT     H216027   4.220   1.221   5.359  0.3674 -1.5441 -1.2806
 5170WAT      O16028   4.908   1.025   4.835 -0.3837  0.4248 -0.3297
 5170WAT     H116029   5.000   1.014   4.861 -0.2561  1.1021 -0.4701
 5170WAT     H216030   4.889   1.117   4.854 -0.4872  0.7727 -2.0326
 5171WAT      O16031   2.305   1.351   3.339  0.5094 -0.3479  0.5404
 5171WAT     H116032   2.275   1.356   3.248 -2.1943  1.5523  1.3873
 5171WAT     H216033   2.387   1.303   3.335  2.3143  2.5389 -3.3320
 5172WAT      O16034   5.116   1.062   3.040 -0.0380  0.0264  0.4792
 5172WAT     H116035   5.146   0.976   3.069  1.2166  0.4197  0.4170
 5172WAT     H216036   5.086   1.106   3.119  1.3763  0.3155  0.8810
 5173WAT      O16037   2.576   1.884   4.135 -0.2343 -0.1345  0.2983
 5173WAT     H116038   2.553   1.794   4.114 -0.3896 -0.4028  1.5132
 5173WAT     H216039   2.548   1.935   4.059  0.7636 -1.2122 -0.8468
 5174WAT      O16040   3.835   1.602   3.936 -0.0667  0.0540 -0.1458
 5174WAT     H116041   3.872   1.673   3.884 -1.5134  0.2348 -0.9986
 5174WAT     H216042   3.867   1.618   4.025  0.8787  0.8624 -0.6141
 5175WAT      O16043   4.280   1.192   4.002  0.0716  0.2196 -0.4332
 5175WAT     H116044   4.198   1.155   4.035  0.5430  0.8622  1.5547
 5175WAT     H216045   4.259   1.282   3.980  0.5773  0.9069  1.6946
 5176WAT      O16046   3.745   2.185   4.200  0.2332 -0.0168  0.2310
 5176WAT     H116047   3.657   2.221   4.204  0.5517  0.6907  1.4285
 5176WAT     H216048   3.743   2.123   4.127 -1.6920 -1.2297  1.2429
 5177WAT      O16049   2.149   1.232   1.640 -0.2947 -0.0822 -0.2743
 5177WAT     H116050   2.061   1.268   1.653  0.0355  0.7333 -0.2904
 5177WAT     H216051   2.133   1.146   1.600 -1.1111 -0.2839  0.4420
 5178WAT      O16052   4.083   1.882   5.432  0.2728  0.0010 -0.1544
 5178WAT     H116053   4.069   1.975   5.449 -0.6088 -0.1296 -0.1193
 5178WAT     H216054   4.076   1.873   5.337  1.7887  0.1871 -0.3023
 5179WAT      O16055   3.789   1.902   3.410  0.9254  0.1599  0.0343
 5179WAT     H116056   3.810   1.980   3.359  0.5899  0.1113 -0.1763
 5179WAT     H216057   3.859   1.840   3.390  0.3645 -0.1545 -0.9934
 5180WAT      O16058   2.448   6.115   3.366  0.1385  0.3661  0.2854
 5180WAT     H116059   2.374   6.173   3.350  0.4973  0.3723 -1.5617
 5180WAT     H216060   2.408   6.029   3.380 -0.2259  0.2084 -1.5102
 5181WAT      O16061   4.768   4.564   4.967  0.2161  0.3752  0.0459
 5181WAT     H116062   4.726   4.593   4.886 -2.3324  0.4911  1.2863
 5181WAT     H216063   4.774   4.643   5.021  1.4648  0.2175  0.1676
 5182WAT      O16064   4.204   1.402   2.318 -0.2315 -0.0716 -0.5475
 5182WAT     H116065   4.172   1.323   2.275 -1.9431  0.2865 -0.0333
 5182WAT     H216066   4.261   1.369   2.388  1.4728 -0.6951 -2.1549
 5183WAT      O16067   1.157   0.533   1.820 -0.4088  0.4768 -0.2975
 5183WAT     H116068   1.069   0.560   1.847 -0.2342  0.7480  0.0125
 5183WAT     H216069   1.196   0.495   1.899 -1.4738 -2.9434 -1.2540
 5184WAT      O16070   3.454   6.136   2.184 -0.0823  0.0905  0.2186
 5184WAT     H116071   3.370   6.123   2.228 -0.5945 -0.4840 -0.8845
 5184WAT     H216072   3.483   6.223   2.213 -2.3000  1.4436 -1.3516
 5185WAT      O16073   4.739   5.579   0.152 -0.3739 -0.0358 -0.1913
 5185WAT     H116074   4.728   5.484   0.145 -1.1923  0.0476 -0.0706
 5185WAT     H216075   4.806   5.599   0.086 -0.6334 -0.6194 -0.6501
 5186WAT      O16076   1.920   0.868   2.268  0.1126 -0.1074  0.3994
 5186WAT     H116077   1.903   0.777   2.291 -0.3550 -0.7558 -2.2167
 5186WAT     H216078   1.834   0.904   2.247  0.5442  0.1343 -1.0815
 5187WAT      O16079   1.874   1.999   0.972  0.4856 -0.1146  0.1052
 5187WAT     H116080   1.888   2.054   0.895 -0.5874  1.5632  1.0418
 5187WAT     H216081   1.889   2.057   1.046 -1.0780 -0.9573  1.1433
 5188WAT      O16082   4.131   0.659   2.015  0.6422 -0.5930  0.4430
 5188WAT     H116083   4.104   0.660   2.107  0.5072  0.1717  0.4038
 5188WAT     H216084   4.197   0.728   2.010  2.3427 -2.1379  0.4554
 5189WAT      O16085   2.130   1.386   0.070 -0.1462  0.1323  0.1147
 5189WAT     H116086   2.176   1.370  -0.013 -0.4547  0.7823 -0.1916
 5189WAT     H216087   2.181   1.455   0.112 -0.3404  0.2391  0.1759
 5190WAT      O16088   3.069   0.207   2.192  0.0183  0.7495  0.1012
 5190WAT     H116089   3.140   0.271   2.188  0.0820  0.7677  1.0942
 5190WAT     H216090   3.075   0.171   2.281 -1.3080  0.8681  0.2638
 5191WAT      O16091   2.630   5.879   1.566  0.2878 -0.9019 -0.4273
 5191WAT     H116092   2.573   5.874   1.643  0.1710 -2.0648 -0.5795
 5191WAT     H216093   2.670   5.792   1.559  1.8986 -0.1987 -0.4733
 5192WAT      O16094   2.942   2.246   5.818  0.1487  0.3439 -0.0309
 5192WAT     H116095   2.905   2.302   5.749 -0.6488  1.4854  1.2774
 5192WAT     H216096   2.973   2.308   5.885  0.0345 -0.7530  1.0629
 5193WAT      O16097   2.934   0.474   4.939 -0.0025 -0.3422  0.3499
 5193WAT     H116098   2.910   0.416   4.866 -0.5802  0.3045  0.0145
 5193WAT     H216099   3.021   0.444   4.966  0.5388 -0.1363 -1.0769
 5194WAT      O16100   2.870   1.118   0.773 -0.4582  0.1980 -0.0596
 5194WAT     H116101   2.797   1.155   0.823  1.3463  0.8807  2.2997
 5194WAT     H216102   2.901   1.045   0.826  1.8450  1.2449  0.1848
 5195WAT      O16103   4.448   5.542   2.014 -0.3899 -0.0260  0.4150
 5195WAT     H116104   4.369   5.579   1.974  0.3337 -0.4026 -1.4454
 5195WAT     H216105   4.520   5.584   1.968  0.5437  0.5093  2.2661
 5196WAT      O16106   2.421   1.051   2.567 -0.6928 -0.1850 -0.2021
 5196WAT     H116107   2.413   1.001   2.486  0.3222 -3.7366  1.6870
 5196WAT     H216108   2.346   1.022   2.620 -0.1631  0.4466  0.9147
 5197WAT      O16109   2.715   6.093   1.961 -0.1551  0.2812 -0.2516
 5197WAT     H116110   2.792   6.149   1.972 -0.5265  0.5376  1.4251
 5197WAT     H216111   2.677   6.121   1.878  0.9097  0.9692 -0.5290
 5198WAT      O16112   4.649   5.827   3.966  0.0813 -0.0652 -0.3601
 5198WAT     H116113   4.708   5.818   3.892 -1.1078  0.7673 -1.4550
 5198WAT     H216114   4.600   5.908   3.948 -0.7557 -0.2384  0.9574
 5199WAT      O16115   3.444   0.790   1.865 -0.4149  0.9932 -0.0863
 5199WAT     H116116   3.503   0.793   1.790  0.1248  1.9156  0.3557
 5199WAT     H216117   3.429   0.697   1.881  0.0384  0.7785 -0.8827
 5200WAT      O16118   3.160   5.804   1.946 -0.1963 -0.0282 -0.1359
 5200WAT     H116119   3.069   5.833   1.949 -0.4880 -0.9145 -0.1640
 5200WAT     H216120   3.190   5.829   1.858 -0.2071  0.8286  0.0927
 5201WAT      O16121   1.667   5.919   3.639 -0.6250  0.6132 -0.6297
 5201WAT     H116122   1.692   5.921   3.547  2.0122  0.1299  0.0050
 5201WAT     H216123   1.657   5.826   3.659  1.3503  0.5176  0.1307
 5202WAT      O16124   3.806   4.481   2.628  0.6852 -0.0249 -0.1733
 5202WAT     H116125   3.866   4.546   2.665 -0.1099 -0.5795  2.3592
 5202WAT     H216126   3.806   4.409   2.693 -0.7212 -1.1899 -1.3803
 5203WAT      O16127   3.025   1.300   5.191 -0.1957  0.2918  0.2519
 5203WAT     H116128   2.934   1.331   5.194 -0.1137  0.5947  3.4821
 5203WAT     H216129   3.073   1.364   5.244  1.6481 -0.6849 -0.1657
 5204WAT      O16130   3.592   4.658   1.077 -0.1115  0.1709  0.3352
 5204WAT     H116131   3.546   4.642   0.995  0.7446 -1.3993  0.1304
 5204WAT     H216132   3.523   4.659   1.143 -0.6466 -0.1392 -0.2094
 5205WAT      O16133   2.312   0.835   3.737  0.1450 -0.1055  0.4506
 5205WAT     H116134   2.290   0.838   3.830 -1.4906  0.2573  0.0734
 5205WAT     H216135   2.261   0.762   3.703  0.5224 -0.0632 -0.2286
 5206WAT      O16136   4.026   0.820   1.050  0.5768 -0.1649  0.3905
 5206WAT     H116137   4.003   0.803   1.142 -1.1313 -1.9479 -0.2793
 5206WAT     H216138   3.952   0.785   1.001  1.0980  1.4596 -1.6687
 5207WAT      O16139   2.165   0.118   3.243 -0.4881  0.1006 -0.1148
 5207WAT     H116140   2.140   0.088   3.330 -1.4892 -0.0905 -0.4531
 5207WAT     H216141   2.124   0.056   3.183 -3.1172  2.3456 -0.8548
 5208WAT      O16142   2.951   0.142   3.719 -0.0906  0.2775  0.2128
 5208WAT     H116143   3.029   0.159   3.666 -1.6687  1.4388 -1.8926
 5208WAT     H216144   2.964   0.195   3.798  0.8065  1.2976 -0.5842
 5209WAT      O16145   2.918   4.475   2.633  0.7939 -1.0023 -0.1580
 5209WAT     H116146   2.831   4.462   2.670  0.1238  0.8260 -0.9729
 5209WAT     H216147   2.977   4.428   2.692 -0.6547 -1.5542  0.8872
 5210WAT      O16148   2.607   4.713   1.267  0.3230  0.0453  0.2224
 5210WAT     H116149   2.651   4.670   1.340 -0.7746  0.7010  1.3102
 5210WAT     H216150   2.616   4.807   1.285 -1.1315  0.1997  0.2557
 5211WAT      O16151   3.690   5.388   2.866  0.5503 -0.3124  0.2471
 5211WAT     H116152   3.621   5.379   2.932  1.2173 -2.6482  0.7591
 5211WAT     H216153   3.763   5.429   2.914  0.2388  0.1983  0.2901
 5212WAT      O16154   2.973   0.447   1.917 -0.2784 -0.2184 -0.4620
 5212WAT     H116155   2.995   0.365   1.873  0.7541 -0.4497  0.4396
 5212WAT     H216156   3.040   0.456   1.985 -1.0017  0.8383  0.1314
 5213WAT      O16157   2.870   0.953   1.022  0.2928  0.1157 -0.6817
 5213WAT     H116158   2.940   0.967   1.086 -0.2660 -3.0987  0.8561
 5213WAT     H216159   2.789   0.963   1.072 -0.1837 -1.1421 -1.1395
 5214WAT      O16160   3.097   1.074   1.485  0.3241 -0.7636 -1.0577
 5214WAT     H116161   3.178   1.044   1.526 -0.5903 -0.6403  0.9649
 5214WAT     H216162   3.028   1.047   1.545 -1.2913 -1.8566 -3.2619
 5215WAT      O16163   3.225   5.463   2.314  0.0634  0.2040 -0.4418
 5215WAT     H116164   3.148   5.449   2.258 -2.5203 -0.5178  2.9305
 5215WAT     H216165   3.237   5.558   2.313 -1.0811  0.3709 -0.8033
 5216WAT      O16166   3.002   0.228   1.759 -0.1982 -0.6824 -0.0152
 5216WAT     H116167   3.006   0.282   1.680 -0.7006 -0.8381 -0.1511
 5216WAT     H216168   2.969   0.144   1.729 -0.6586 -0.6561  0.4039
 5217WAT      O16169   0.061   5.291   3.157  0.0637 -0.4737 -0.1746
 5217WAT     H116170   0.084   5.321   3.069  1.8881 -0.5572  0.2298
 5217WAT     H216171   0.131   5.230   3.180  0.9601  1.3147  2.2424
 5218WAT      O16172   2.101   0.697   3.193  0.3442  0.5747  0.1246
 5218WAT     H116173   2.176   0.637   3.199 -0.0495  0.1160  0.5836
 5218WAT     H216174   2.079   0.718   3.284 -0.5586  0.0854  0.0331
 5219WAT      O16175   3.146   5.667   2.761 -0.8500 -0.3100 -0.1929
 5219WAT     H116176   3.197   5.607   2.815  0.9109  1.3224  0.0612
 5219WAT     H216177   3.146   5.749   2.810 -1.1425  0.5862 -1.6435
 5220WAT      O16178   1.243   2.508   2.368  0.1307 -0.4498 -0.5684
 5220WAT     H116179   1.329   2.540   2.342  0.2274 -0.0367  0.2091
 5220WAT     H216180   1.217   2.447   2.299  1.1863 -0.8335 -0.6365
 5221WAT      O16181   3.164   1.515   2.141  0.8148 -0.1889 -0.7028
 5221WAT     H116182   3.131   1.479   2.223  0.6645 -0.5743 -0.9288
 5221WAT     H216183   3.256   1.532   2.157  0.2854  2.0928  0.3499
 5222WAT      O16184   1.515   4.703   3.152 -0.5335  0.4559 -0.6215
 5222WAT     H116185   1.524   4.619   3.107 -0.9711  0.0682  0.0129
 5222WAT     H216186   1.580   4.759   3.109  2.7322 -1.3074  1.5866
 5223WAT      O16187   2.944   0.188   6.015 -0.5348 -0.4333  0.3523
 5223WAT     H116188   2.864   0.150   5.977 -0.2708  0.4637 -1.2096
 5223WAT     H216189   2.915   0.233   6.094 -2.0304  1.8243 -1.3676
 5224WAT      O16190   4.459   5.863   2.440 -0.1429 -0.1912 -0.5619
 5224WAT     H116191   4.421   5.951   2.449  0.2623 -0.2251  2.2821
 5224WAT     H216192   4.406   5.821   2.372 -0.7817  1.9924 -1.5202
 5225WAT      O16193   3.653   0.181   2.506  0.1705  0.6722  0.0555
 5225WAT     H116194   3.714   0.217   2.570 -0.7305 -2.5334  3.0737
 5225WAT     H216195   3.691   0.097   2.481 -1.8711 -0.3958  0.3161
 5226WAT      O16196   2.261   4.794   2.261 -0.4862  0.1803  0.2062
 5226WAT     H116197   2.201   4.794   2.335 -1.0384 -1.3509 -0.2015
 5226WAT     H216198   2.258   4.704   2.228  1.8658  0.1214  0.0242
 5227WAT      O16199   3.897   5.510   3.004 -0.2771 -0.3837  0.2366
 5227WAT     H116200   3.860   5.577   3.061  0.2309  0.5043 -0.4703
 5227WAT     H216201   3.932   5.445   3.064  0.2816  0.5559  0.9438
 5228WAT      O16202   4.182   5.277   2.358 -0.0617 -0.1649 -0.2280
 5228WAT     H116203   4.183   5.361   2.404  0.2091  0.2110 -0.9063
 5228WAT     H216204   4.253   5.227   2.397  0.2321  0.1924 -0.2987
 5229WAT      O16205   3.072   1.151   4.366  0.4093  0.1120  0.1622
 5229WAT     H116206   2.979   1.141   4.384  0.3602 -2.1028 -0.9398
 5229WAT     H216207   3.099   1.226   4.419 -1.2969 -1.1585  3.1002
 5230WAT      O16208   3.142   6.005   5.662  0.7124 -0.1280  0.2329
 5230WAT     H116209   3.160   6.035   5.573 -0.7152 -1.1465 -0.4297
 5230WAT     H216210   3.139   6.085   5.714  1.3869  0.4948 -0.6544
 5231WAT      O16211   2.123   0.142   1.561  0.0384  0.4538  0.0814
 5231WAT     H116212   2.172   0.197   1.623 -1.1432  1.5196  0.1088
 5231WAT     H216213   2.065   0.203   1.516 -1.7815 -0.8534  0.5552
 5232WAT      O16214   2.929   0.253   1.456 -0.3711 -0.1609  0.2314
 5232WAT     H116215   2.904   0.345   1.465 -0.0044 -0.1941  2.1538
 5232WAT     H216216   2.850   0.209   1.427 -1.1291  0.4833  1.2539
 5233WAT      O16217   2.222   0.906   1.514  0.1075 -0.0286 -0.4757
 5233WAT     H116218   2.216   0.966   1.440  0.8167 -0.1607 -0.6499
 5233WAT     H216219   2.133   0.871   1.524 -0.3288  1.0966 -0.3208
 5234WAT      O16220   1.379   0.280   2.733 -0.0665  0.4551  0.4601
 5234WAT     H116221   1.349   0.369   2.749 -1.9691 -0.3098  1.4025
 5234WAT     H216222   1.334   0.253   2.654  0.6177  0.3592  0.0949
 5235WAT      O16223   3.310   0.405   1.235 -0.9821 -0.5898  0.0069
 5235WAT     H116224   3.397   0.444   1.239 -1.0402 -0.5218  0.8216
 5235WAT     H216225   3.252   0.472   1.272 -1.3960 -0.5997 -0.6041
 5236WAT      O16226   3.997   1.133   2.480  0.1586 -0.3676 -0.3287
 5236WAT     H116227   3.956   1.206   2.526  0.6477  0.7269 -1.5546
 5236WAT     H216228   4.035   1.079   2.549 -0.3109  0.4760  0.6144
 5237WAT      O16229   2.554   0.821   5.653 -0.3239 -0.5320 -0.1819
 5237WAT     H116230   2.524   0.732   5.667 -2.1466  0.0282 -0.2275
 5237WAT     H216231   2.632   0.812   5.598  1.5057 -2.2385  2.4251
 5238WAT      O16232   2.217   5.905   2.167  0.1812  0.1230 -1.0664
 5238WAT     H116233   2.179   5.883   2.082 -0.9141  1.1194 -0.8605
 5238WAT     H216234   2.258   5.990   2.154 -0.8383  0.7414 -0.3757
 5239WAT      O16235   4.250   1.885   3.051 -0.4836 -0.0942  0.3227
 5239WAT     H116236   4.192   1.891   2.976  1.2349  0.0874 -1.0608
 5239WAT     H216237   4.328   1.934   3.025  0.8951 -1.5637  1.4723
 5240WAT      O16238   3.269   1.671   2.800  0.3395 -1.0334  0.1145
 5240WAT     H116239   3.277   1.728   2.877  0.3173 -0.1945 -0.4898
 5240WAT     H216240   3.255   1.731   2.727  1.4042 -1.7437 -0.7046
 5241WAT      O16241   3.888   3.316   1.740 -0.0119  0.4784  0.0507
 5241WAT     H116242   3.956   3.330   1.806  1.0277  0.5777 -0.9947
 5241WAT     H216243   3.907   3.228   1.705  0.2126  0.9085 -0.9443
 5242WAT      O16244   1.630   0.019   2.421  0.1426 -0.4785  0.4666
 5242WAT     H116245   1.585   0.002   2.339 -0.9759  1.3582  0.6334
 5242WAT     H216246   1.582  -0.032   2.486 -1.6546  1.2644  0.6022
 5243WAT      O16247   2.398   4.514   2.338  0.0405  0.2182 -0.0721
 5243WAT     H116248   2.310   4.515   2.301 -0.2930 -0.2239  0.6800
 5243WAT     H216249   2.455   4.490   2.265 -0.7212 -1.7051 -0.0994
 5244WAT      O16250   7.247   2.470   0.911  0.4224  0.4007 -0.4292
 5244WAT     H116251   7.303   2.397   0.939  0.3155  0.0439 -1.1244
 5244WAT     H216252   7.161   2.429   0.897  0.0654  0.8781  0.2775
 5245WAT      O16253   2.851   0.363   5.551  0.1659 -0.3341 -0.0864
 5245WAT     H116254   2.845   0.338   5.458 -1.4359 -0.1354 -0.0678
 5245WAT     H216255   2.791   0.302   5.595  1.7007 -1.1118  0.9932
 5246WAT      O16256   2.077   5.633   2.430  0.0744  0.4705  0.0268
 5246WAT     H116257   2.116   5.584   2.357  2.7880 -0.8200  2.1420
 5246WAT     H216258   2.018   5.696   2.388  0.1482 -1.3415 -3.1283
 5247WAT      O16259   1.962   3.202   3.230 -0.0799 -0.9108 -0.4413
 5247WAT     H116260   2.036   3.145   3.252  0.9593  0.1272 -1.1168
 5247WAT     H216261   1.909   3.150   3.169 -0.5542 -2.0828  0.8898
 5248WAT      O16262   2.989   2.923   2.035 -0.0879 -0.5081 -0.4569
 5248WAT     H116263   2.934   2.845   2.044  0.3094 -0.6626  0.9170
 5248WAT     H216264   3.067   2.892   1.989 -0.9605 -0.3523 -2.1424
 5249WAT      O16265   4.008   0.804   2.587  0.1919  0.0455  0.6355
 5249WAT     H116266   4.028   0.879   2.642 -1.7342  0.4603  0.8148
 5249WAT     H216267   3.919   0.779   2.610  0.8768 -2.5705  0.8792
 5250WAT      O16268   1.924   1.167   5.460  0.0372 -0.0552 -0.2924
 5250WAT     H116269   1.861   1.186   5.391 -0.5198  0.3686  0.3236
 5250WAT     H216270   1.875   1.180   5.542  1.1829  1.3662  0.2232
 5251WAT      O16271   3.690   6.063   2.398 -0.0520 -0.2275  0.0259
 5251WAT     H116272   3.654   6.101   2.318  0.0368  1.8830  0.9360
 5251WAT     H216273   3.668   5.970   2.392 -1.7459  0.2186 -1.5213
 5252WAT      O16274   2.618   5.612   2.943  0.0358 -0.6988 -0.2430
 5252WAT     H116275   2.528   5.641   2.932  0.5187  0.5413 -1.0841
 5252WAT     H216276   2.664   5.647   2.867  1.6707  0.5161  1.2240
 5253WAT      O16277   3.737   1.922   1.744 -0.2593 -0.2623 -0.4283
 5253WAT     H116278   3.802   1.977   1.701  0.6410 -1.5373 -0.7538
 5253WAT     H216279   3.788   1.851   1.783 -1.3827 -0.8287  0.0519
 5254WAT      O16280   1.628   2.110   2.296 -0.0656 -0.3524 -0.2674
 5254WAT     H116281   1.702   2.065   2.254  0.4110 -0.0754  0.2568
 5254WAT     H216282   1.622   2.070   2.383  0.3506  0.5605  0.1984
 5255WAT      O16283   3.042   1.714   1.123 -0.1812 -0.1043 -0.1065
 5255WAT     H116284   3.017   1.622   1.130 -0.3112 -0.2140 -1.6084
 5255WAT     H216285   3.102   1.728   1.196 -1.5122 -0.8909  1.2022
 5256WAT      O16286   1.825   0.352   2.196  0.0427  0.0828  0.8478
 5256WAT     H116287   1.848   0.289   2.127 -2.6689  0.5457 -0.6308
 5256WAT     H216288   1.823   0.301   2.276  1.3561 -0.9040  0.2865
 5257WAT      O16289   2.993   5.662   2.253  0.4240  0.3253  0.0686
 5257WAT     H116290   2.988   5.701   2.341 -0.7926 -0.9796  0.6297
 5257WAT     H216291   3.026   5.732   2.197 -0.8879  1.9006  1.1697
 5258WAT      O16292   5.379   3.939   3.781 -0.9893 -0.1541 -0.8519
 5258WAT     H116293   5.473   3.952   3.789 -1.1201  0.9664 -0.9615
 5258WAT     H216294   5.366   3.924   3.687 -0.7761 -1.8182 -0.6589
 5259WAT      O16295   2.600   0.460   1.546 -0.3584  0.2759 -0.2795
 5259WAT     H116296   2.567   0.423   1.464  1.9690  0.8610 -1.5622
 5259WAT     H216297   2.559   0.546   1.552 -0.1796  0.4211 -1.0889
 5260WAT      O16298   3.929   4.690   0.168 -0.0112  0.3500 -0.0433
 5260WAT     H116299   4.015   4.705   0.131 -0.0207 -2.0124 -1.1463
 5260WAT     H216300   3.941   4.620   0.232 -0.4913  2.5339  2.6602
 5261WAT      O16301   3.213   1.235   1.955 -0.4957  0.1069 -0.4607
 5261WAT     H116302   3.204   1.330   1.944 -0.1828  0.3372  0.9643
 5261WAT     H216303   3.262   1.226   2.037  0.9504 -1.2760 -1.4262
 5262WAT      O16304   5.004   0.388   3.348 -0.4533 -0.0102  0.5379
 5262WAT     H116305   5.037   0.478   3.343 -0.5492  0.0598  1.0977
 5262WAT     H216306   5.002   0.358   3.257  0.6739  0.1570  0.4443
 5263WAT      O16307   2.063   5.197   3.413  0.5462  0.0375 -0.5353
 5263WAT     H116308   1.980   5.173   3.453  1.4331  0.2703  1.5555
 5263WAT     H216309   2.063   5.151   3.329 -2.0063  0.6547 -0.9542
 5264WAT      O16310   2.471   0.386   2.350  0.1447  0.7466  0.3196
 5264WAT     H116311   2.436   0.471   2.323  1.3349  1.1510  0.0140
 5264WAT     H216312   2.493   0.342   2.268 -2.2854 -0.7010  0.3507
 5265WAT      O16313   2.978   1.189   1.827  0.0360 -0.3447 -0.0214
 5265WAT     H116314   3.036   1.179   1.903 -1.2037  0.9580  1.1451
 5265WAT     H216315   3.006   1.271   1.786 -0.6368  0.0311  0.2577
 5266WAT      O16316   3.833   0.503   1.073  0.1883 -0.2171  0.2942
 5266WAT     H116317   3.789   0.501   0.988  0.4935 -0.4779  0.1429
 5266WAT     H216318   3.858   0.412   1.089  1.0539 -0.0058  0.1817
 5267WAT      O16319   2.232   5.795   0.686  0.0943  0.2554 -0.0361
 5267WAT     H116320   2.163   5.836   0.739  0.3954  1.6931 -0.7104
 5267WAT     H216321   2.212   5.822   0.596  0.9037 -0.2344 -0.3678
 5268WAT      O16322   1.885   6.063   2.453 -0.1331  0.6051 -0.5309
 5268WAT     H116323   1.799   6.105   2.449 -0.6371 -0.4587 -1.2737
 5268WAT     H216324   1.912   6.074   2.544 -2.8133 -2.3970  0.8198
 5269WAT      O16325   3.546   6.007   1.448  0.1539  0.5795 -0.0301
 5269WAT     H116326   3.556   6.026   1.541  2.2891  0.3347 -0.1781
 5269WAT     H216327   3.452   6.018   1.432 -0.0165  2.2612  1.7698
 5270WAT      O16328   1.665   0.902   2.202 -0.0797  0.5524 -0.0332
 5270WAT     H116329   1.600   0.925   2.136  1.8884 -0.7199 -2.5983
 5270WAT     H216330   1.654   0.807   2.215  0.4742  0.5416  0.4167
 5271WAT      O16331   3.738   0.680   5.058  0.4201 -0.7518  0.1740
 5271WAT     H116332   3.797   0.618   5.014  0.9403  1.1326 -2.0097
 5271WAT     H216333   3.793   0.755   5.078 -0.4220 -0.5359  1.7940
 5272WAT      O16334   3.840   1.766   1.213  0.3631  0.7507  0.2873
 5272WAT     H116335   3.818   1.672   1.211  2.3033  0.1805  2.0942
 5272WAT     H216336   3.894   1.779   1.135 -0.1545  0.4543 -0.1333
 5273WAT      O16337   2.141   0.481   2.025  0.7399  0.1642 -0.3269
 5273WAT     H116338   2.223   0.516   1.990  0.2404  0.6964 -1.0020
 5273WAT     H216339   2.126   0.530   2.106 -0.3996  2.2305 -1.7026
 5274WAT      O16340   2.481   0.244   0.872 -0.1630 -0.0603 -0.7684
 5274WAT     H116341   2.494   0.282   0.958  0.8892  0.0039 -0.9402
 5274WAT     H216342   2.558   0.272   0.822 -0.6157 -0.3350 -1.6369
 5275WAT      O16343   3.989   6.037   1.817 -0.3719 -0.1052 -0.1603
 5275WAT     H116344   3.939   5.956   1.807  1.3408 -1.1792 -0.5615
 5275WAT     H216345   4.018   6.057   1.728  0.3001  0.2034  0.1247
 5276WAT      O16346   3.790   0.501   2.324  0.5581 -0.1519  0.1357
 5276WAT     H116347   3.833   0.554   2.391 -0.1083  0.7299 -0.1179
 5276WAT     H216348   3.855   0.435   2.300  0.1719 -1.7108  2.9941
 5277WAT      O16349   4.517   5.587   0.832  0.4344  0.5068  0.3092
 5277WAT     H116350   4.558   5.666   0.795  1.6613 -0.3769 -0.3264
 5277WAT     H216351   4.581   5.518   0.815  0.4010 -0.2482  2.8229
 5278WAT      O16352   3.885   5.786   2.095 -0.3662 -0.1398 -0.4112
 5278WAT     H116353   3.929   5.721   2.041 -0.4779  0.7161 -1.5678
 5278WAT     H216354   3.793   5.762   2.091 -0.3281 -0.3131 -0.2616
 5279WAT      O16355   3.669   1.985   0.745  0.4685  0.0803 -0.2655
 5279WAT     H116356   3.606   1.988   0.674  0.1034  2.6902  0.0733
 5279WAT     H216357   3.704   1.896   0.743 -2.1323 -1.0083 -1.3905
 5280WAT      O16358   2.105   1.192   2.106  0.1777  0.0736  0.6466
 5280WAT     H116359   2.036   1.144   2.061 -0.1701 -0.9951  2.2070
 5280WAT     H216360   2.072   1.281   2.112 -0.6502 -0.2164  0.5326
 5281WAT      O16361   2.792   0.558   3.240 -0.0822  0.3103 -0.0271
 5281WAT     H116362   2.765   0.548   3.332 -1.0083 -1.9640 -0.4651
 5281WAT     H216363   2.728   0.619   3.203 -1.9959 -1.5052  0.0566
 5282WAT      O16364   3.564   5.828   3.185 -0.3206 -0.0482 -0.2695
 5282WAT     H116365   3.518   5.876   3.116  0.4063 -2.4553 -2.6015
 5282WAT     H216366   3.517   5.745   3.193  0.0467 -0.1215  1.6711
 5283WAT      O16367   2.893   1.562   2.141  0.3297 -0.2720  0.2150
 5283WAT     H116368   2.965   1.573   2.079 -0.0787 -2.2872 -0.7084
 5283WAT     H216369   2.933   1.520   2.217  0.0579 -2.0789 -0.5953
 5284WAT      O16370   2.004   3.307   2.455 -0.3433 -0.2122 -0.5186
 5284WAT     H116371   1.915   3.272   2.447 -0.5869 -0.1773  1.3990
 5284WAT     H216372   2.055   3.259   2.389 -1.6894 -0.5288 -1.3593
 5285WAT      O16373   3.968   5.007   1.597  0.0908  0.0796 -1.2465
 5285WAT     H116374   4.008   5.053   1.671  2.5058 -0.6341 -2.0110
 5285WAT     H216375   3.895   5.063   1.571 -0.1080  0.9285  0.9204
 5286WAT      O16376   2.413   0.695   1.547 -0.1402 -0.8731  0.1922
 5286WAT     H116377   2.362   0.775   1.554 -0.6123 -0.7777 -3.0585
 5286WAT     H216378   2.466   0.706   1.469  1.1753 -3.0098  0.6806
 5287WAT      O16379   2.835   0.118   0.430 -0.3194  0.4987 -0.4818
 5287WAT     H116380   2.906   0.180   0.414 -0.2483  0.5350 -0.0437
 5287WAT     H216381   2.837   0.059   0.354  0.3445  0.3447 -0.3536
 5288WAT      O16382   3.573   0.370   0.046  0.1942  0.6736 -0.6580
 5288WAT     H116383   3.527   0.454   0.047 -2.1333 -0.5184 -1.1524
 5288WAT     H216384   3.605   0.360  -0.044 -0.6328  0.4694 -0.9300
 5289WAT      O16385   2.266   0.646   0.536  0.2724  0.1856 -0.2331
 5289WAT     H116386   2.246   0.621   0.626 -0.6579 -1.4250 -0.8549
 5289WAT     H216387   2.343   0.702   0.544  0.8171 -0.7341  1.4843
 5290WAT      O16388   4.182   1.396   2.780 -0.4052 -0.3220 -0.3250
 5290WAT     H116389   4.208   1.454   2.850 -1.2208  0.8126 -0.9305
 5290WAT     H216390   4.109   1.345   2.816 -1.7137  1.1854 -0.7109
 5291WAT      O16391   5.194   2.742   1.204  0.3746  0.3965 -0.1740
 5291WAT     H116392   5.128   2.779   1.263 -0.3527  1.1326 -1.4146
 5291WAT     H216393   5.276   2.752   1.251 -0.4005 -0.8987  1.5854
 5292WAT      O16394   2.734   1.426   1.495  0.5047 -0.1167  0.6026
 5292WAT     H116395   2.694   1.512   1.482  0.4167 -0.4708 -2.0052
 5292WAT     H216396   2.676   1.381   1.557 -0.4914  1.0318  0.5327
 5293WAT      O16397   2.229   5.764   0.071  0.3273 -0.0653 -0.0941
 5293WAT     H116398   2.154   5.763   0.013  1.2928 -2.4138 -1.4559
 5293WAT     H216399   2.272   5.680   0.056  2.4230  0.5830  1.6963
 5294WAT      O16400   4.853   5.956   2.725 -0.0414  0.5995 -0.4083
 5294WAT     H116401   4.833   5.868   2.692 -1.9942 -0.0017  1.9968
 5294WAT     H216402   4.822   5.954   2.816  1.4177  3.2815  0.2444
 5295WAT      O16403   3.092   0.253   5.211 -0.0386 -0.2695 -0.6148
 5295WAT     H116404   3.138   0.336   5.222 -0.7002  0.0422 -0.1417
 5295WAT     H216405   3.161   0.186   5.218  0.0472  0.0119  2.9754
 5296WAT      O16406   4.534   6.073   2.716  0.3384  0.5081  0.5758
 5296WAT     H116407   4.577   6.112   2.640 -0.5865  1.0206  0.3006
 5296WAT     H216408   4.536   5.979   2.698  1.5901  0.4873  0.7163
 5297WAT      O16409   3.147   0.100   5.809 -0.0449  0.0760  0.6848
 5297WAT     H116410   3.218   0.153   5.844 -0.4835 -0.2504  2.1385
 5297WAT     H216411   3.071   0.122   5.864 -0.6142 -0.9082  0.3287
 5298WAT      O16412   3.661   6.093   5.456 -0.4098 -0.5470  0.8403
 5298WAT     H116413   3.599   6.144   5.404 -0.7889 -1.3280  0.5123
 5298WAT     H216414   3.662   6.007   5.414  0.2096 -0.8153  1.3930
 5299WAT      O16415   4.938   1.174   5.179  0.1961 -0.0961  0.1042
 5299WAT     H116416   4.856   1.155   5.225  0.3686 -2.3847 -0.3975
 5299WAT     H216417   4.913   1.180   5.086  0.6134 -1.2776 -0.1072
 5300WAT      O16418   2.169   0.480   5.372  0.5965  0.1432 -0.2425
 5300WAT     H116419   2.173   0.389   5.343 -0.6437 -0.2628  0.7471
 5300WAT     H216420   2.102   0.519   5.317  1.2448  0.5188 -0.7790
 5301WAT      O16421   1.957   2.462   5.321  0.3068 -0.1259 -0.3510
 5301WAT     H116422   1.924   2.549   5.340  1.1965  0.2643 -0.5554
 5301WAT     H216423   1.894   2.425   5.259 -0.9253 -0.2360  0.9075
 5302WAT      O16424   2.505   3.207   3.979 -0.5315  0.2410  0.4803
 5302WAT     H116425   2.429   3.165   4.021 -1.3398  2.2349  1.1760
 5302WAT     H216426   2.558   3.238   4.053 -0.3695  1.0631  0.0336
 5303WAT      O16427   3.500   1.868   5.597  0.3333  0.0642 -0.2029
 5303WAT     H116428   3.465   1.827   5.676 -0.9279  0.8058 -0.3410
 5303WAT     H216429   3.519   1.795   5.539  0.1130 -0.4334  0.3325
 5304WAT      O16430   3.116   0.249   0.728 -0.4150 -0.0007 -0.2111
 5304WAT     H116431   3.044   0.199   0.765 -0.0189  0.3294  1.0507
 5304WAT     H216432   3.192   0.192   0.738  0.0682  0.8597  1.3749
 5305WAT      O16433   2.229   0.763   1.261 -0.2341 -0.0765 -0.1383
 5305WAT     H116434   2.236   0.776   1.355 -1.0351 -0.0893 -0.0664
 5305WAT     H216435   2.137   0.783   1.241 -0.6428 -2.1220 -0.5677
 5306WAT      O16436   1.964   2.762   5.837 -0.4605  0.3785  0.0285
 5306WAT     H116437   2.003   2.675   5.840  1.1002  1.0698  2.1141
 5306WAT     H216438   1.927   2.774   5.924 -2.2740  1.1449 -0.8050
 5307WAT      O16439   4.624   4.450   1.743 -0.0669 -0.2981  0.1934
 5307WAT     H116440   4.572   4.372   1.766 -0.8552 -0.3489 -1.6041
 5307WAT     H216441   4.697   4.415   1.692 -0.2841  0.1048 -0.3995
 5308WAT      O16442   2.949   3.477   0.529 -0.0988 -0.8457  0.1927
 5308WAT     H116443   2.971   3.431   0.610  1.5946 -1.9193 -0.8210
 5308WAT     H216444   2.930   3.408   0.467  0.3638 -0.1011 -0.8036
 5309WAT      O16445   2.461   1.577   1.082  0.1480 -0.2329  0.4343
 5309WAT     H116446   2.413   1.640   1.136 -0.4157  1.2359 -1.6244
 5309WAT     H216447   2.545   1.620   1.065  0.8774 -1.2930  1.2338
 5310WAT      O16448   2.724   4.990   5.599 -0.3705 -0.0006 -1.0349
 5310WAT     H116449   2.783   4.988   5.674 -0.4347 -2.6362 -0.9619
 5310WAT     H216450   2.685   5.077   5.601  4.3000  2.4284 -1.7680
 5311WAT      O16451   1.771   0.392   0.465 -0.2197  0.8347  0.1487
 5311WAT     H116452   1.720   0.339   0.526  2.7378 -0.8349  1.3443
 5311WAT     H216453   1.815   0.456   0.521 -0.0182  1.4496 -0.7024
 5312WAT      O16454   4.715   1.314   1.833  0.7520 -0.0580  0.2138
 5312WAT     H116455   4.707   1.382   1.766  0.0077  0.3523  0.7042
 5312WAT     H216456   4.772   1.248   1.793  2.5780  1.4373  0.2090
 5313WAT      O16457   3.098   2.074   4.518 -0.3238 -0.1722  0.0745
 5313WAT     H116458   3.076   2.165   4.540 -0.4550  0.2716 -1.7416
 5313WAT     H216459   3.181   2.081   4.470  0.0396 -1.0904  0.5629
 5314WAT      O16460   1.414   1.331   5.243  0.1657 -0.0583  0.6331
 5314WAT     H116461   1.321   1.308   5.245  0.6351 -2.2841 -0.6914
 5314WAT     H216462   1.426   1.376   5.159  0.8313 -2.6858 -0.7733
 5315WAT      O16463   3.562   0.058   5.959 -0.7409 -0.1733 -0.2686
 5315WAT     H116464   3.580   0.049   6.052 -1.2785  1.6029  0.0558
 5315WAT     H216465   3.649   0.055   5.918 -0.4726 -0.6114  0.3200
 5316WAT      O16466   3.746   0.440   0.799 -0.2832  0.1462 -0.2620
 5316WAT     H116467   3.776   0.390   0.723  0.1306  0.0653 -0.0460
 5316WAT     H216468   3.670   0.391   0.831  0.4273 -0.6465  0.2576
 5317WAT      O16469   3.273   0.768   4.651 -0.3315 -0.0856  0.0934
 5317WAT     H116470   3.231   0.689   4.617 -1.7543  0.9185 -0.5739
 5317WAT     H216471   3.291   0.822   4.574  0.5635  0.2789  0.5399
 5318WAT      O16472   3.794   0.097   1.427  0.1810  0.3327  0.5684
 5318WAT     H116473   3.740   0.019   1.413  1.4299 -0.9962  2.5149
 5318WAT     H216474   3.734   0.160   1.467 -0.8902  0.4896 -1.1881
 5319WAT      O16475   2.278   5.278   1.058  0.3821  0.2726 -0.2371
 5319WAT     H116476   2.340   5.257   0.988  2.1314 -2.2447  1.8637
 5319WAT     H216477   2.333   5.314   1.128 -0.9878  0.6728  0.6722
 5320WAT      O16478   3.155   5.775   5.345  0.1689  0.0878  0.1094
 5320WAT     H116479   3.113   5.838   5.286 -0.1843  0.0185  0.2833
 5320WAT     H216480   3.249   5.793   5.337  0.0451  1.0019  0.5601
 5321WAT      O16481   2.664   1.726   0.978 -0.3261 -0.2095  0.4281
 5321WAT     H116482   2.708   1.781   1.042 -0.6947  0.8363 -0.1968
 5321WAT     H216483   2.729   1.713   0.908 -0.8349  0.9936 -0.2991
 5322WAT      O16484   3.441   4.971   1.620  0.4282  0.3996 -0.0807
 5322WAT     H116485   3.435   4.891   1.673  2.5289  1.6081  2.1045
 5322WAT     H216486   3.508   4.951   1.554 -0.6055 -0.3302 -0.9534
 5323WAT      O16487   3.153   5.020   0.148  0.6086  0.0480  0.4866
 5323WAT     H116488   3.126   5.111   0.137  2.1638  0.4878 -0.0606
 5323WAT     H216489   3.197   5.019   0.233 -0.1092 -0.3925  0.8602
 5324WAT      O16490   3.749   1.160   1.695  0.4568  0.1054 -0.2248
 5324WAT     H116491   3.682   1.215   1.737  0.4889 -0.2463  0.3046
 5324WAT     H216492   3.743   1.181   1.602 -0.9811 -0.5471 -0.3082
 5325WAT      O16493   2.390   1.147   3.987 -0.0948 -0.1639  0.2975
 5325WAT     H116494   2.307   1.106   4.009  0.2513 -1.6032 -0.9401
 5325WAT     H216495   2.370   1.204   3.913 -0.1870  0.4703  0.7903
 5326WAT      O16496   3.330   5.717   0.484  0.8362 -0.0650  0.3674
 5326WAT     H116497   3.370   5.689   0.567 -0.0219 -4.3629 -0.4025
 5326WAT     H216498   3.241   5.742   0.508  0.5458 -1.4192  0.7979
 5327WAT      O16499   2.649   0.607   0.701 -0.2765  0.1820  0.5277
 5327WAT     H116500   2.604   0.551   0.639  1.0257 -0.5420  0.1855
 5327WAT     H216501   2.612   0.694   0.687 -0.1295  0.0112 -1.1668
 5328WAT      O16502   1.538   6.099   2.169 -0.0421 -0.4083 -0.0827
 5328WAT     H116503   1.587   6.017   2.161  0.0169 -0.2873 -0.9977
 5328WAT     H216504   1.555   6.146   2.088 -0.8884  0.0722  0.0053
 5329WAT      O16505   0.713   0.764   3.405 -0.0841  0.4777 -0.5961
 5329WAT     H116506   0.690   0.853   3.377 -0.5416  0.2398 -0.9777
 5329WAT     H216507   0.644   0.740   3.467  0.0904  0.4221 -0.4229
 5330WAT      O16508   2.896   5.083   1.460  0.6123  0.2938 -0.1743
 5330WAT     H116509   2.888   4.989   1.448 -1.6210  0.2899  0.7354
 5330WAT     H216510   2.881   5.096   1.554  2.5342  1.4497  0.0200
 5331WAT      O16511   1.215   0.521   2.653 -0.0961 -0.1674 -0.0469
 5331WAT     H116512   1.274   0.595   2.642  0.7851 -0.6465  1.2111
 5331WAT     H216513   1.175   0.509   2.567  1.5878  0.2229 -0.9259
 5332WAT      O16514   2.563   1.514   0.548 -0.2204 -0.5539 -0.1670
 5332WAT     H116515   2.545   1.557   0.632  0.0127 -2.7416  1.0843
 5332WAT     H216516   2.499   1.552   0.488  1.2248  2.9503  0.2679
 5333WAT      O16517   1.366   1.025   3.811 -0.2180  0.0755 -0.1400
 5333WAT     H116518   1.277   0.999   3.832 -1.9708  3.3552 -2.6004
 5333WAT     H216519   1.368   1.119   3.829  2.3846  0.3180 -1.3017
 5334WAT      O16520   3.207   5.672   0.882  0.2523 -0.6240  0.2937
 5334WAT     H116521   3.271   5.709   0.943 -0.5171 -1.1409  1.4377
 5334WAT     H216522   3.247   5.589   0.855  0.4525 -0.5430  0.3345
 5335WAT      O16523   4.055   5.420   5.719 -0.0800 -0.8539 -0.3763
 5335WAT     H116524   4.026   5.391   5.805  1.4301 -1.5306 -0.0704
 5335WAT     H216525   4.085   5.510   5.732 -0.5039 -0.7155 -0.3512
 5336WAT      O16526   4.492   2.032   1.790  0.1719  0.4768  0.2156
 5336WAT     H116527   4.568   1.976   1.776 -1.1375 -1.0698 -1.0748
 5336WAT     H216528   4.422   1.973   1.815 -0.7731  1.8036  0.8331
 5337WAT      O16529   1.937   1.492   0.839 -0.6419  0.1871  0.3191
 5337WAT     H116530   1.858   1.533   0.803 -0.5302 -0.2990 -0.4990
 5337WAT     H216531   1.972   1.440   0.766  1.7468  2.2255 -0.1100
 5338WAT      O16532   5.887   1.591   1.595  0.0465  0.0884  0.6335
 5338WAT     H116533   5.924   1.503   1.598 -0.0923  0.0376  3.0809
 5338WAT     H216534   5.926   1.635   1.671  0.1728  2.1826 -0.5747
 5339WAT      O16535   3.735   1.075   1.123 -0.0632 -0.2984  0.0004
 5339WAT     H116536   3.799   1.048   1.188  0.2541  0.1340 -0.1280
 5339WAT     H216537   3.770   1.044   1.039 -0.9295 -1.6965  0.1087
 5340WAT      O16538   3.711   2.008   5.948  0.4168 -0.1569  0.3791
 5340WAT     H116539   3.805   1.987   5.949  0.2888 -0.7977  1.4788
 5340WAT     H216540   3.695   2.045   5.862  1.4164 -1.3061 -0.3399
 5341WAT      O16541   2.708   0.700   4.708 -0.1606 -0.1163  0.0377
 5341WAT     H116542   2.627   0.685   4.757  0.0024 -0.9260  0.0752
 5341WAT     H216543   2.728   0.793   4.722 -0.7504 -0.0603  0.5346
 5342WAT      O16544   2.772   1.242   0.552 -0.0733 -0.0661 -0.2893
 5342WAT     H116545   2.806   1.208   0.635 -2.7798 -0.0961  0.9169
 5342WAT     H216546   2.777   1.337   0.562  1.2388 -0.0330 -0.9027
 5343WAT      O16547   3.961   3.066   1.685  0.0919  0.7731  0.4507
 5343WAT     H116548   3.898   3.021   1.629 -0.8638 -0.1919  2.2300
 5343WAT     H216549   4.001   2.997   1.737  2.1961  1.4423 -0.1568
 5344WAT      O16550   3.743   0.492   1.690  0.2821  0.4482 -0.1194
 5344WAT     H116551   3.716   0.537   1.610 -0.3933  0.1686 -0.0488
 5344WAT     H216552   3.836   0.473   1.676  0.1411  0.2886 -0.8935
 5345WAT      O16553   4.260   0.064   2.231  0.3382 -0.1394  0.5427
 5345WAT     H116554   4.262   0.141   2.173 -1.7186 -0.6832 -0.3428
 5345WAT     H216555   4.183   0.015   2.202  0.5342 -1.5794  2.3271
 5346WAT      O16556   4.246   4.280   5.471 -0.2051 -0.8575 -0.0922
 5346WAT     H116557   4.275   4.327   5.549 -0.4692 -1.6105  0.4811
 5346WAT     H216558   4.157   4.312   5.455  0.6519  1.0001 -1.4866
 5347WAT      O16559   2.524   5.604   5.587 -0.7414  0.1542 -0.1781
 5347WAT     H116560   2.540   5.642   5.501 -1.4273  0.9967  0.0582
 5347WAT     H216561   2.453   5.542   5.573  0.0282 -0.6851 -0.4613
 5348WAT      O16562   3.000   5.352   1.061 -0.0515 -0.6870  0.7201
 5348WAT     H116563   2.938   5.425   1.050  2.5305  1.5919  0.0796
 5348WAT     H216564   2.945   5.278   1.086 -3.0002  1.1616  0.2897
 5349WAT      O16565   2.278   1.340   5.197  0.5459  0.5218 -0.1213
 5349WAT     H116566   2.196   1.292   5.181  0.6451  0.5130 -0.6108
 5349WAT     H216567   2.318   1.294   5.271 -0.0574  0.7422  0.3592
 5350WAT      O16568   3.867   5.918   1.289 -0.2513  0.2470 -0.1300
 5350WAT     H116569   3.835   5.862   1.219  0.4355 -0.0309 -0.2330
 5350WAT     H216570   3.832   5.879   1.369  0.6859 -0.6834 -0.1505
 5351WAT      O16571   3.370   2.144   0.957  0.1744 -0.3078 -0.4982
 5351WAT     H116572   3.344   2.067   0.907 -0.2726 -0.6295  0.2057
 5351WAT     H216573   3.297   2.158   1.018 -0.2368  1.2692 -1.2769
 5352WAT      O16574   2.116   5.787   1.929 -0.5107  0.4076  0.6328
 5352WAT     H116575   2.136   5.726   1.858 -2.4070  0.0008  0.3761
 5352WAT     H216576   2.062   5.854   1.888 -0.2407  1.0862  1.3601
 5353WAT      O16577   5.060   2.560   1.044  0.6542 -0.2895 -0.7748
 5353WAT     H116578   5.075   2.617   1.119  1.6557 -0.7815 -0.5910
 5353WAT     H216579   4.970   2.528   1.057  0.3702  0.5977 -0.4633
 5354WAT      O16580   1.234   3.927   1.085  0.5508 -0.3226 -0.2297
 5354WAT     H116581   1.295   3.933   1.158 -0.5897 -0.1779  0.7482
 5354WAT     H216582   1.180   3.851   1.105 -1.2986  1.0649  0.3230
 5355WAT      O16583   1.030   2.783   5.969  0.2628 -0.2175 -0.0543
 5355WAT     H116584   1.064   2.866   6.002  0.7973  0.7400 -2.7875
 5355WAT     H216585   1.032   2.792   5.874 -0.9735 -2.8633 -0.4226
 5356WAT      O16586   2.436   3.701   2.085 -0.2994 -0.1058 -0.7357
 5356WAT     H116587   2.493   3.778   2.085 -1.6646  0.9450 -0.2959
 5356WAT     H216588   2.364   3.724   2.026 -0.9184 -0.9013 -0.3091
 5357WAT      O16589   1.703   3.643   4.541  0.3218 -0.3966 -0.0295
 5357WAT     H116590   1.741   3.677   4.622  0.7989 -0.1911 -0.3396
 5357WAT     H216591   1.695   3.719   4.484  0.6297 -0.6625 -0.4297
 5358WAT      O16592   0.882   1.584   3.467  0.2135 -0.5169 -0.2456
 5358WAT     H116593   0.941   1.566   3.394 -3.0156 -0.4680 -3.1515
 5358WAT     H216594   0.852   1.674   3.452  2.5632  1.2075  3.7568
 5359WAT      O16595   1.589   4.433   0.258  0.0002  0.2763  0.1422
 5359WAT     H116596   1.661   4.495   0.270  1.5571 -1.5461  0.6533
 5359WAT     H216597   1.516   4.487   0.228  0.8306  2.5721  1.9783
 5360WAT      O16598   1.194   3.905   0.741 -0.5996  0.4140  0.3572
 5360WAT     H116599   1.286   3.907   0.770 -0.6781 -2.1381  1.0743
 5360WAT     H216600   1.159   3.990   0.766  1.8656  1.9831 -1.0918
 5361WAT      O16601   1.624   2.551   4.276  0.5519  0.6657  0.0573
 5361WAT     H116602   1.579   2.633   4.254  0.6183  1.0867  1.3892
 5361WAT     H216603   1.563   2.482   4.250 -0.7059  1.2097  1.4592
 5362WAT      O16604   1.880   1.447   4.987  0.1693  0.3588 -0.2291
 5362WAT     H116605   1.871   1.434   4.893 -0.5353 -1.2573  0.0249
 5362WAT     H216606   1.974   1.451   5.002  0.5013 -2.9703 -0.6481
 5363WAT      O16607   1.336   5.057   3.873  0.3509  0.6470  0.2132
 5363WAT     H116608   1.288   5.085   3.951  0.0118  0.3885  0.0981
 5363WAT     H216609   1.302   4.970   3.853 -0.1361  1.0234 -0.6799
 5364WAT      O16610   1.076   5.569   3.193  1.0157  0.0475  0.0282
 5364WAT     H116611   1.167   5.595   3.209  1.1464 -0.7197  0.6306
 5364WAT     H216612   1.059   5.593   3.102  1.8920  0.0102 -0.1525
 5365WAT      O16613   2.131   5.599   5.579 -0.4984 -0.3463  0.2493
 5365WAT     H116614   2.198   5.663   5.558 -2.6817  2.5602  1.4940
 5365WAT     H216615   2.149   5.525   5.520  3.1256  0.6410 -0.0881
 5366WAT      O16616   3.147   5.886   4.180 -0.3347  0.1302 -0.0454
 5366WAT     H116617   3.144   5.982   4.181 -0.2741  0.1280  0.6432
 5366WAT     H216618   3.141   5.863   4.087 -1.0142  0.7798 -0.1739
 5367WAT      O16619   3.938   3.303   1.205  0.4818  0.0146  0.5874
 5367WAT     H116620   4.013   3.349   1.168 -0.6606  0.6542 -1.0674
 5367WAT     H216621   3.976   3.233   1.258  2.2334  0.2238 -0.3161
 5368WAT      O16622   1.571   2.781   5.323  0.0057 -0.3534  0.2270
 5368WAT     H116623   1.662   2.791   5.296 -0.4827  2.2552 -0.7386
 5368WAT     H216624   1.521   2.794   5.242 -1.3075  2.5851  1.3729
 5369WAT      O16625   6.906   3.262   4.293  0.0547 -0.7842  0.2658
 5369WAT     H116626   6.981   3.278   4.236  0.4294  2.1070  1.4209
 5369WAT     H216627   6.831   3.298   4.245  0.3205  1.3422  1.3100
 5370WAT      O16628   5.875   2.909   1.270  0.3874 -0.0020  0.5227
 5370WAT     H116629   5.850   2.974   1.335 -0.4772 -0.4192  0.6149
 5370WAT     H216630   5.969   2.923   1.257  0.0504  1.8648 -0.1288
 5371WAT      O16631   1.160   5.879   4.143  0.1924  0.3641  0.1313
 5371WAT     H116632   1.090   5.828   4.185  0.3842  0.0964  0.1269
 5371WAT     H216633   1.130   5.970   4.150 -1.7187  0.0926 -2.7278
 5372WAT      O16634   2.202   0.237   3.826  0.6334 -0.2434  0.3446
 5372WAT     H116635   2.172   0.254   3.916 -1.7315 -0.6697 -0.2992
 5372WAT     H216636   2.144   0.168   3.794 -0.1520  1.4847 -2.2651
 5373WAT      O16637   6.451   4.713   3.082 -0.0421 -0.2885 -0.1444
 5373WAT     H116638   6.529   4.669   3.117  0.2111 -0.0795 -0.4407
 5373WAT     H216639   6.389   4.642   3.066 -0.6358 -0.2742  1.8883
 5374WAT      O16640   1.266   2.525   0.571  0.2091 -0.3379 -0.0337
 5374WAT     H116641   1.277   2.518   0.477 -1.0981  1.9863 -0.4437
 5374WAT     H216642   1.175   2.501   0.587 -0.3878  1.8546  0.1961
 5375WAT      O16643   0.537   2.502   3.368  0.6977 -0.1784 -0.1224
 5375WAT     H116644   0.632   2.508   3.374  0.7342 -1.4681  1.5844
 5375WAT     H216645   0.507   2.506   3.459 -0.8968  0.4211 -0.6467
 5376WAT      O16646   3.870   4.121   1.390 -0.1991  0.6296 -0.1479
 5376WAT     H116647   3.903   4.117   1.479 -0.2902  2.7714  0.0399
 5376WAT     H216648   3.775   4.114   1.400 -0.0903 -1.5675 -0.3315
 5377WAT      O16649   1.973   3.619   0.114  0.4170  1.1859  0.4696
 5377WAT     H116650   1.958   3.713   0.122  0.7936  1.1548  1.8502
 5377WAT     H216651   1.915   3.579   0.179  0.7299  0.5122  0.3513
 5378WAT      O16652   2.292   2.058   2.560 -0.0831 -0.3136 -0.2151
 5378WAT     H116653   2.226   2.016   2.616 -0.7264  0.1835 -0.5871
 5378WAT     H216654   2.346   2.108   2.620  0.6602 -1.5961  0.2348
 5379WAT      O16655   0.681   3.157   4.727  0.6125  0.0624  0.2923
 5379WAT     H116656   0.596   3.166   4.770  1.7202  0.5274  2.5215
 5379WAT     H216657   0.705   3.247   4.705  0.3255 -0.1190 -0.8438
 5380WAT      O16658   2.951   5.194   4.211 -0.2965  0.1125 -0.4311
 5380WAT     H116659   3.017   5.129   4.186  1.5046  0.9865  1.7035
 5380WAT     H216660   2.978   5.274   4.166  1.0457  0.8462  1.5571
 5381WAT      O16661   2.510   3.701   4.495 -0.1691 -0.3791  0.5857
 5381WAT     H116662   2.453   3.774   4.471  0.8787  0.8631  1.6874
 5381WAT     H216663   2.549   3.728   4.579  2.3448 -0.9544 -0.3088
 5382WAT      O16664   2.495   6.100   0.855 -0.3326 -0.0766 -0.2718
 5382WAT     H116665   2.474   6.191   0.838 -0.5884 -0.4144 -1.9412
 5382WAT     H216666   2.446   6.051   0.789  2.4719 -1.1655 -1.7130
 5383WAT      O16667   1.688   4.394   5.393  0.0745 -0.2857  0.2488
 5383WAT     H116668   1.758   4.350   5.440 -1.1906 -1.3028  1.2363
 5383WAT     H216669   1.684   4.481   5.432  1.0740 -0.0527 -0.1384
 5384WAT      O16670   0.757   3.002   5.342 -0.4277 -0.0505  0.3024
 5384WAT     H116671   0.753   2.926   5.284  3.1134  1.3216 -2.0855
 5384WAT     H216672   0.736   3.076   5.285 -0.5476  1.0525  1.7472
 5385WAT      O16673   0.593   3.591   5.789  0.0456 -0.1407 -0.2824
 5385WAT     H116674   0.640   3.589   5.872 -0.6927 -2.0295  0.1476
 5385WAT     H216675   0.501   3.599   5.814 -0.0463  1.6636 -1.0447
 5386WAT      O16676   0.598   5.531   3.587  0.2716  0.1765  0.2397
 5386WAT     H116677   0.655   5.603   3.613  1.2943  0.3752 -2.2933
 5386WAT     H216678   0.645   5.452   3.613  0.4581  0.3657  0.4833
 5387WAT      O16679   2.878   0.509   4.618  0.4619  0.0426 -0.7824
 5387WAT     H116680   2.871   0.539   4.527  0.3805  0.9622 -0.4788
 5387WAT     H216681   2.821   0.567   4.667  3.1350  1.8915  0.3903
 5388WAT      O16682   0.808   2.414   5.270 -0.1752 -0.2291 -0.2120
 5388WAT     H116683   0.862   2.348   5.313 -1.6075 -1.3864 -0.0835
 5388WAT     H216684   0.797   2.483   5.336  0.4680 -0.3518  0.0300
 5389WAT      O16685   2.723   1.186   1.913 -0.5612  0.3276 -0.4746
 5389WAT     H116686   2.736   1.165   2.006 -1.4551  1.0747 -0.1595
 5389WAT     H216687   2.808   1.170   1.873  0.1521  1.0495  0.6854
 5390WAT      O16688   3.166   0.036   4.212  0.0956 -0.2361  0.3874
 5390WAT     H116689   3.144   0.062   4.302  0.2800  2.1364 -0.1692
 5390WAT     H216690   3.212   0.112   4.176  1.0645 -1.5738 -1.3663
 5391WAT      O16691   2.675   5.920   4.555  0.2406 -0.6544  0.2034
 5391WAT     H116692   2.770   5.932   4.553 -0.0128  2.1411  0.7671
 5391WAT     H216693   2.650   5.909   4.463  1.0268 -0.6691 -0.0156
 5392WAT      O16694   2.285   0.186   2.464 -0.0840  0.0231  0.0862
 5392WAT     H116695   2.353   0.244   2.497 -1.4087  1.3610  0.6102
 5392WAT     H216696   2.304   0.177   2.371  2.0646 -1.4817  0.6054
 5393WAT      O16697   2.444   0.500   2.609 -0.0612 -0.1473  0.0292
 5393WAT     H116698   2.490   0.431   2.561  0.3180  0.6485 -0.7730
 5393WAT     H216699   2.443   0.470   2.700  2.6870  0.1360  0.2354
 5394WAT      O16700   1.011   3.305   0.207 -0.1496  0.1185 -0.2876
 5394WAT     H116701   1.028   3.276   0.296  1.2751 -0.3113 -0.6686
 5394WAT     H216702   1.085   3.363   0.186 -1.0717  1.1406 -0.7974
 5395WAT      O16703   3.476   3.877   1.097 -0.0145  0.2859 -0.2607
 5395WAT     H116704   3.460   3.948   1.159 -1.8275 -0.5627  0.2856
 5395WAT     H216705   3.405   3.884   1.034  1.3641  0.6446 -1.8567
 5396WAT      O16706   2.890   5.597   5.242 -0.4852  0.5802 -0.6059
 5396WAT     H116707   2.895   5.610   5.337 -1.4786  0.1175 -0.4759
 5396WAT     H216708   2.976   5.564   5.217 -0.5186 -0.2486  0.3020
 5397WAT      O16709   0.516   0.660   3.612 -0.1290 -0.3853  0.5434
 5397WAT     H116710   0.482   0.595   3.673 -0.2579 -1.2912 -0.4509
 5397WAT     H216711   0.461   0.737   3.624 -2.6121 -1.7793 -1.0058
 5398WAT      O16712   4.540   5.394   2.744 -0.2995 -0.3925 -0.0536
 5398WAT     H116713   4.527   5.358   2.831  0.0321  0.4955  0.3726
 5398WAT     H216714   4.470   5.458   2.733 -0.8305 -1.0820 -0.7676
 5399WAT      O16715   7.195   2.993   5.008 -0.1725  0.2696  0.1402
 5399WAT     H116716   7.129   3.051   4.970  0.3847 -0.2608 -1.7950
 5399WAT     H216717   7.279   3.028   4.975  0.3014 -0.5621  0.4403
 5400WAT      O16718   1.514   3.005   5.852  0.0529  0.1770 -0.1146
 5400WAT     H116719   1.437   2.953   5.878  0.1855 -0.3890 -0.8157
 5400WAT     H216720   1.509   3.084   5.905 -1.1242  0.2340 -0.2949
 5401WAT      O16721   3.334   2.724   0.923  0.2224  0.0641  0.0747
 5401WAT     H116722   3.343   2.639   0.968 -0.9946  0.0811  0.4085
 5401WAT     H216723   3.421   2.744   0.891  0.7046 -0.9286  0.7094
 5402WAT      O16724   7.199   5.595   3.195 -0.4120 -0.3585  0.0132
 5402WAT     H116725   7.283   5.579   3.238 -1.7203 -1.4948  2.3547
 5402WAT     H216726   7.215   5.574   3.103  1.4869 -2.0423  0.6549
 5403WAT      O16727   1.406   3.839   5.898 -0.0764 -0.4942  0.2859
 5403WAT     H116728   1.367   3.758   5.865 -0.1879 -1.4996  2.6739
 5403WAT     H216729   1.335   3.903   5.893 -0.3298 -0.8276 -0.5997
 5404WAT      O16730   0.722   4.138   4.659  0.6170 -0.1634  0.3685
 5404WAT     H116731   0.717   4.234   4.656 -0.3186 -0.1164  2.1955
 5404WAT     H216732   0.754   4.113   4.572  0.6032  1.7799 -0.2400
 5405WAT      O16733   1.214   6.114   2.736  0.5631  0.2527  0.4683
 5405WAT     H116734   1.163   6.194   2.750 -0.5333 -0.3561  0.0720
 5405WAT     H216735   1.190   6.057   2.809 -0.8118 -0.7627 -0.7300
 5406WAT      O16736   0.861   2.290   4.194  0.3155  0.0930 -0.4184
 5406WAT     H116737   0.800   2.217   4.191  0.3370  0.0453  0.1283
 5406WAT     H216738   0.870   2.319   4.103 -1.1303  0.6191 -0.4163
 5407WAT      O16739   0.901   6.008   3.245  0.4375  0.1381 -0.1032
 5407WAT     H116740   0.961   6.020   3.172 -1.2895  0.0747 -1.6098
 5407WAT     H216741   0.880   6.097   3.273 -1.5430  0.3884 -2.0464
 5408WAT      O16742   1.693   5.620   3.995 -0.1236  0.2542 -0.2120
 5408WAT     H116743   1.646   5.700   4.019 -0.8998 -0.1326 -0.4174
 5408WAT     H216744   1.707   5.575   4.078 -1.4113 -0.3240 -0.2852
 5409WAT      O16745   3.936   4.973   0.186 -0.1612 -0.1228  0.2251
 5409WAT     H116746   3.917   4.880   0.173 -0.5399 -0.0134 -0.0156
 5409WAT     H216747   4.025   4.984   0.153 -0.5347 -0.1704 -0.8377
 5410WAT      O16748   6.944   4.236   3.204 -0.6367  0.2260 -0.1511
 5410WAT     H116749   6.950   4.255   3.297  0.6312 -0.4975 -0.0791
 5410WAT     H216750   6.998   4.303   3.162  1.1607 -1.1517 -0.1336
 5411WAT      O16751   0.596   3.436   4.364 -0.1181 -0.1594 -0.7931
 5411WAT     H116752   0.528   3.470   4.306 -0.4698 -0.6879 -0.6966
 5411WAT     H216753   0.571   3.468   4.451  0.0104  0.0286 -0.8250
 5412WAT      O16754   1.776   0.098   4.784 -0.2128 -0.5151 -0.3214
 5412WAT     H116755   1.722   0.044   4.726 -1.3952 -0.4054  0.6268
 5412WAT     H216756   1.810   0.036   4.849  0.8415 -0.5837 -0.9134
 5413WAT      O16757   2.220   4.652   0.225  0.2757 -0.0188  0.5103
 5413WAT     H116758   2.228   4.592   0.299 -0.1094 -1.0483 -0.2506
 5413WAT     H216759   2.158   4.609   0.166  0.8610  0.5825 -0.5859
 5414WAT      O16760   6.135   4.238   4.273 -0.4877 -0.0511  0.7350
 5414WAT     H116761   6.071   4.261   4.206  0.4033 -2.1007 -0.9123
 5414WAT     H216762   6.086   4.183   4.335 -0.5535 -0.9342 -0.0756
 5415WAT      O16763   2.049   3.987   5.240 -0.3681  0.1464 -0.0658
 5415WAT     H116764   2.079   3.898   5.223 -0.9060 -0.0649  0.0664
 5415WAT     H216765   2.014   4.017   5.156  0.1862  0.3850 -0.2148
 5416WAT      O16766   1.543   0.507   3.297 -0.2061 -0.5748 -0.2046
 5416WAT     H116767   1.516   0.533   3.385 -0.5099  0.1638 -0.5124
 5416WAT     H216768   1.625   0.459   3.311 -0.6742 -1.1686  0.5494
 5417WAT      O16769   6.803   4.281   4.258  0.1001  0.1271  0.4407
 5417WAT     H116770   6.784   4.187   4.249 -0.6408  0.1892  1.1915
 5417WAT     H216771   6.741   4.311   4.325 -0.2458  1.3327 -0.3884
 5418WAT      O16772   7.291   5.169   3.954  0.1519  0.0757 -0.5631
 5418WAT     H116773   7.243   5.180   4.036 -0.3362 -0.2508 -0.7949
 5418WAT     H216774   7.329   5.081   3.959 -2.0324 -1.0344 -1.7308
 5419WAT      O16775   3.295   1.042   3.770  0.0566  0.9411  0.0922
 5419WAT     H116776   3.331   1.091   3.696  3.2313  0.3278  1.0520
 5419WAT     H216777   3.224   1.097   3.803  0.9606  3.0100 -1.1767
 5420WAT      O16778   6.806   5.273   2.840 -0.2614  0.1498  0.2659
 5420WAT     H116779   6.757   5.264   2.759 -0.4566 -0.5146  0.4485
 5420WAT     H216780   6.786   5.361   2.871 -0.9109  0.0819  0.0600
 5421WAT      O16781   2.054   0.120   4.463 -0.7328  0.1263 -0.8747
 5421WAT     H116782   2.064   0.168   4.381 -0.8023  1.0156 -0.3840
 5421WAT     H216783   2.133   0.141   4.513  0.2776 -2.0198 -1.4831
 5422WAT      O16784   1.072   3.911   0.077  0.3896  0.5391 -0.0463
 5422WAT     H116785   1.155   3.879   0.112  0.5916  0.2830 -0.7389
 5422WAT     H216786   1.022   3.938   0.154 -0.9088 -3.9389  0.9408
 5423WAT      O16787   1.417   4.232   4.902  0.2997  0.0625  0.6016
 5423WAT     H116788   1.473   4.156   4.921  0.3038  0.0675  0.6101
 5423WAT     H216789   1.437   4.254   4.811  0.7094  0.3989  0.7711
 5424WAT      O16790   1.561   0.613   2.603  0.2310 -0.3698 -0.1062
 5424WAT     H116791   1.571   0.526   2.564 -1.5092 -0.4178 -0.5499
 5424WAT     H216792   1.646   0.655   2.591  0.2335 -0.9452 -2.6170
 5425WAT      O16793   2.068   0.757   4.594  0.8513  0.1912 -0.0194
 5425WAT     H116794   2.145   0.813   4.602  1.2651 -0.2104 -1.0317
 5425WAT     H216795   2.096   0.672   4.628  0.1385  0.6430  1.7854
 5426WAT      O16796   1.948   3.496   4.115  0.2424 -0.6502  0.3357
 5426WAT     H116797   1.965   3.405   4.092 -1.6740 -0.7522 -1.0044
 5426WAT     H216798   1.967   3.544   4.034 -2.7252 -0.4592 -0.3537
 5427WAT      O16799   0.414   0.941   4.327 -0.5752  0.0641 -0.5981
 5427WAT     H116800   0.330   0.955   4.283 -0.9735 -1.7444 -0.4950
 5427WAT     H216801   0.433   0.849   4.313 -0.1636 -0.3445  2.0307
 5428WAT      O16802   0.847   5.582   4.403 -0.8799 -0.9059  0.4823
 5428WAT     H116803   0.862   5.621   4.489 -0.6372  1.1676 -0.4274
 5428WAT     H216804   0.844   5.488   4.419  0.1127 -0.6344  2.6106
 5429WAT      O16805   1.556   0.547   3.877  0.2195  0.5546  0.3925
 5429WAT     H116806   1.534   0.522   3.788  2.9997 -0.4963 -0.1102
 5429WAT     H216807   1.581   0.639   3.871  1.1051  0.2973 -0.1118
 5430WAT      O16808   1.800   5.454   4.793 -0.0521  0.0012  0.3962
 5430WAT     H116809   1.715   5.488   4.822  0.5718  1.5845  0.4239
 5430WAT     H216810   1.857   5.464   4.869  0.8427  1.4621 -0.4302
 5431WAT      O16811   1.835   0.873   3.384 -0.0856  0.0486 -0.1251
 5431WAT     H116812   1.867   0.954   3.344 -0.3105 -0.2569 -0.9411
 5431WAT     H216813   1.754   0.853   3.336  0.5778 -1.2754 -0.7242
 5432WAT      O16814   0.281   2.702   4.831 -0.0180  0.3292  0.3888
 5432WAT     H116815   0.272   2.779   4.774  0.9118  0.1035 -0.0766
 5432WAT     H216816   0.199   2.654   4.819  0.4326 -0.0853 -1.3104
 5433WAT      O16817   0.101   1.813   1.933  0.3979  0.4376  1.1207
 5433WAT     H116818   0.102   1.779   2.022  0.4018  0.9214  1.3077
 5433WAT     H216819   0.168   1.881   1.932  1.6627 -0.7601  0.2596
 5434WAT      O16820   1.877   0.690   2.519 -0.0409  0.2533 -0.2980
 5434WAT     H116821   1.879   0.595   2.528  0.0210  0.3397  0.7297
 5434WAT     H216822   1.969   0.715   2.509 -0.2303 -0.0274 -3.6995
 5435WAT      O16823   0.311   3.709   2.739 -0.6462  0.0895 -0.3553
 5435WAT     H116824   0.231   3.726   2.790 -1.1555 -0.2445 -1.0255
 5435WAT     H216825   0.297   3.623   2.701  0.5146 -0.4624  0.3913
 5436WAT      O16826   0.770   5.562   3.918 -0.0788 -0.6836  0.2207
 5436WAT     H116827   0.798   5.650   3.891  1.6832  0.9924  6.0781
 5436WAT     H216828   0.675   5.568   3.922 -0.0674  0.5469 -0.5641
 5437WAT      O16829   6.432   2.956   1.922  0.0288  0.2931 -0.8463
 5437WAT     H116830   6.409   2.907   1.842  3.8844 -1.3152 -1.1584
 5437WAT     H216831   6.482   3.031   1.890  0.0040  0.6818  0.0079
 5438WAT      O16832   1.535   2.798   4.823  0.0208  0.1542 -0.1643
 5438WAT     H116833   1.524   2.883   4.780  0.5202  0.1860 -0.2351
 5438WAT     H216834   1.471   2.741   4.780  0.5404  0.1755 -0.9870
 5439WAT      O16835   1.245   5.949   2.123 -0.1891 -0.0259 -0.4979
 5439WAT     H116836   1.262   5.898   2.044  1.6659 -1.7334  0.9146
 5439WAT     H216837   1.267   6.039   2.098  0.3821 -0.5369 -1.9270
 5440WAT      O16838   2.551   5.869   4.038 -0.0256 -0.4564 -0.2311
 5440WAT     H116839   2.572   5.894   4.129  1.2740  0.1294 -0.6636
 5440WAT     H216840   2.474   5.920   4.016 -0.2502 -0.4743  0.4919
 5441WAT      O16841   0.664   0.228   1.994 -0.3544 -0.0324 -0.4404
 5441WAT     H116842   0.708   0.163   2.049 -1.5712 -1.2542 -0.8703
 5441WAT     H216843   0.572   0.223   2.019 -0.2372  3.3575  1.3400
 5442WAT      O16844   0.955   3.404   5.616  0.1582 -0.0771 -0.0748
 5442WAT     H116845   0.911   3.320   5.615 -1.0625  0.5158  1.2078
 5442WAT     H216846   1.025   3.395   5.681 -0.5687  0.1560  0.7644
 5443WAT      O16847   0.124   5.376   2.910  0.0871  0.1735 -0.0291
 5443WAT     H116848   0.075   5.457   2.898  0.5914  0.1438 -3.0711
 5443WAT     H216849   0.076   5.311   2.859  1.8182 -0.4338 -0.9847
 5444WAT      O16850   2.853   0.235   4.252  0.0544  0.2442 -0.1662
 5444WAT     H116851   2.765   0.256   4.284  0.6579 -0.4846  2.1145
 5444WAT     H216852   2.848   0.142   4.231  0.7032 -0.2320  1.6393
 5445WAT      O16853   2.134   0.440   2.446  0.0206 -0.3905 -0.2722
 5445WAT     H116854   2.219   0.419   2.485 -0.6902 -1.6310  0.6859
 5445WAT     H216855   2.120   0.371   2.382 -1.1687 -1.4409  1.0519
 5446WAT      O16856   0.451   3.013   3.862 -0.0515 -0.0055  0.5137
 5446WAT     H116857   0.396   2.959   3.806  0.4677 -0.5310  0.5033
 5446WAT     H216858   0.425   3.103   3.841 -0.8937 -0.2435  0.5109
 5447WAT      O16859   2.868   4.854   2.776  0.1904 -0.2160 -0.0935
 5447WAT     H116860   2.787   4.806   2.789  0.6572 -0.5686  1.8321
 5447WAT     H216861   2.853   4.905   2.697 -0.7927 -2.5391 -1.5261
 5448WAT      O16862   7.324   2.975   4.671  0.3761 -0.3760  0.1784
 5448WAT     H116863   7.349   3.025   4.594 -2.7821  0.4710 -0.4318
 5448WAT     H216864   7.337   3.035   4.744 -1.4750  0.7455 -0.3366
 5449WAT      O16865   1.740   4.012   0.330 -0.0250  0.0223 -0.0980
 5449WAT     H116866   1.691   4.037   0.409 -0.1823  1.0560 -0.5034
 5449WAT     H216867   1.698   4.062   0.260  0.4937 -0.4358 -0.7444
 5450WAT      O16868   7.249   4.428   1.675  0.2604 -0.4753 -0.1771
 5450WAT     H116869   7.213   4.497   1.730  0.2273  0.5957 -1.4806
 5450WAT     H216870   7.263   4.354   1.734  0.6466  0.7615  1.3273
 5451WAT      O16871   0.258   3.998   3.578 -0.4141 -0.2917 -0.2856
 5451WAT     H116872   0.261   3.903   3.594  0.2522 -0.1023  0.8112
 5451WAT     H216873   0.165   4.015   3.562 -0.5958 -1.0849 -0.1599
 5452WAT      O16874   2.839   0.597   4.374  0.1084 -0.0872 -0.0884
 5452WAT     H116875   2.859   0.575   4.283 -2.6108  0.2427 -0.8564
 5452WAT     H216876   2.863   0.689   4.382  0.3140 -0.1056 -0.4622
 5453WAT      O16877   1.379   4.217   3.371  0.6243  0.0179 -0.2101
 5453WAT     H116878   1.326   4.178   3.440  1.1647 -0.5382 -0.1037
 5453WAT     H216879   1.439   4.275   3.418  0.4755  0.2306 -0.2824
 5454WAT      O16880   0.980   0.725   3.493 -1.8028 -0.6245 -0.7936
 5454WAT     H116881   0.893   0.715   3.455 -1.4679  1.5309 -2.3327
 5454WAT     H216882   1.020   0.796   3.442  1.4029 -2.4907 -1.1625
 5455WAT      O16883   7.412   4.055   4.092 -0.0785 -0.1532  0.5498
 5455WAT     H116884   7.334   4.070   4.039  0.4829  0.4764 -0.1299
 5455WAT     H216885   7.481   4.038   4.028  0.0993 -1.9478  1.1874
 5456WAT      O16886   2.676   1.024   2.628 -0.2716 -0.7232  0.0155
 5456WAT     H116887   2.679   1.030   2.723  0.5235 -0.3672 -0.0203
 5456WAT     H216888   2.587   1.050   2.604 -0.5151 -0.9453  0.6612
 5457WAT      O16889   1.787   5.049   3.144 -0.5720  0.6584 -0.3105
 5457WAT     H116890   1.869   5.060   3.097 -0.9268  1.1647 -0.8352
 5457WAT     H216891   1.740   4.982   3.095  0.2811 -1.0255  1.0710
 5458WAT      O16892   3.236   2.649   5.039 -0.2746 -0.3805 -0.0835
 5458WAT     H116893   3.265   2.676   4.951 -1.5268 -0.5309 -0.5708
 5458WAT     H216894   3.286   2.705   5.098 -0.3107  0.6190 -0.9481
 5459WAT      O16895   6.823   2.238   4.070  0.1124  0.9714  0.2392
 5459WAT     H116896   6.769   2.313   4.095  1.3402  2.1829 -0.5723
 5459WAT     H216897   6.837   2.249   3.976  1.2895  0.3863  0.3281
 5460WAT      O16898   1.745   3.536   3.352 -0.0093 -0.0143  1.0416
 5460WAT     H116899   1.764   3.607   3.414  1.8950  0.3690  0.1041
 5460WAT     H216900   1.751   3.578   3.266 -1.6775 -0.7455  0.5390
 5461WAT      O16901   3.187   1.635   4.775  0.0006 -0.3679  0.0103
 5461WAT     H116902   3.156   1.680   4.696  2.0690 -0.2343 -0.7809
 5461WAT     H216903   3.162   1.544   4.761  0.6085 -0.3999 -0.9646
 5462WAT      O16904   2.256   4.725   5.994 -0.6043  0.2182 -0.2980
 5462WAT     H116905   2.269   4.729   6.089 -1.9966  1.6491 -0.1195
 5462WAT     H216906   2.337   4.687   5.960  0.7448  1.4831  1.2988
 5463WAT      O16907   0.934   3.283   2.102  0.0981 -0.6066  0.2734
 5463WAT     H116908   0.891   3.353   2.053  0.5274  0.7492  1.7326
 5463WAT     H216909   1.026   3.310   2.105 -0.0556 -0.1285  2.5410
 5464WAT      O16910   2.831   0.501   2.295 -0.4077 -0.1706  0.4581
 5464WAT     H116911   2.910   0.554   2.302 -0.1970 -0.5386  0.8452
 5464WAT     H216912   2.849   0.422   2.346 -1.3665  0.1549  1.3380
 5465WAT      O16913   1.656   4.250   4.734  0.1404 -0.1321 -0.2767
 5465WAT     H116914   1.692   4.338   4.741  2.8425 -1.2073  0.5904
 5465WAT     H216915   1.654   4.218   4.824 -1.1549 -0.8586 -0.5380
 5466WAT      O16916   7.350   5.059   1.610  0.0706  0.4464 -0.4202
 5466WAT     H116917   7.391   5.069   1.524  2.3630  2.2773  0.7591
 5466WAT     H216918   7.287   5.131   1.616 -0.2214  0.2098 -0.6152
 5467WAT      O16919   0.316   5.852   3.341 -0.1797  0.1292 -0.6012
 5467WAT     H116920   0.411   5.862   3.335  0.0685 -0.0571  1.7812
 5467WAT     H216921   0.281   5.937   3.317  0.9160  1.6381  2.5953
 5468WAT      O16922   0.982   3.738   5.768  0.4750  0.0460  0.2679
 5468WAT     H116923   0.905   3.685   5.746  0.0350  1.0367 -0.7069
 5468WAT     H216924   0.946   3.817   5.808  0.6110  2.1353 -3.3330
 5469WAT      O16925   2.113   4.425   4.621 -0.3063  0.3237  0.0629
 5469WAT     H116926   2.125   4.350   4.563 -1.4736 -0.1831  0.4398
 5469WAT     H216927   2.095   4.387   4.707  1.8159  1.0517  0.9235
 5470WAT      O16928   0.491   5.174   2.516 -0.3737  0.0218  0.3681
 5470WAT     H116929   0.496   5.086   2.552 -0.3741 -0.3144 -0.4357
 5470WAT     H216930   0.493   5.231   2.592  1.7141 -0.5770  0.8145
 5471WAT      O16931   3.314   5.822   5.934 -0.2844  0.1990  0.5546
 5471WAT     H116932   3.286   5.887   5.997  2.8686 -0.7089  3.1496
 5471WAT     H216933   3.393   5.859   5.894 -0.4681 -0.5724 -0.5812
 5472WAT      O16934   6.571   5.244   2.025  0.6497  0.2124 -0.5158
 5472WAT     H116935   6.628   5.313   2.061  0.9555  0.4088 -1.3657
 5472WAT     H216936   6.631   5.175   1.999  0.3932 -0.0973 -0.2977
 5473WAT      O16937   2.314   0.983   3.505 -0.0620 -0.0644  0.1473
 5473WAT     H116938   2.323   0.933   3.587  1.5638  0.1397  0.1305
 5473WAT     H216939   2.265   1.061   3.530  0.7627  0.1886  1.0227
 5474WAT      O16940   2.871   5.136   1.764 -0.0171 -0.3357  0.5340
 5474WAT     H116941   2.866   5.155   1.858 -0.4113 -0.7267  0.5982
 5474WAT     H216942   2.787   5.094   1.744  0.8291 -2.0695  0.4356
 5475WAT      O16943   2.020   5.869   5.011 -0.0148 -0.5421 -0.1514
 5475WAT     H116944   2.110   5.890   4.987 -0.0996  0.0990  0.0774
 5475WAT     H216945   1.968   5.894   4.935 -0.3172  1.7578  0.7143
 5476WAT      O16946   1.596   2.025   2.529  0.7378  0.3065  0.1913
 5476WAT     H116947   1.554   2.086   2.590  1.3809  0.7454  0.1979
 5476WAT     H216948   1.545   1.944   2.538 -0.7226  1.0977 -0.5039
 5477WAT      O16949   2.785   2.055   5.930 -0.1753 -0.0487 -0.1698
 5477WAT     H116950   2.836   2.122   5.886  0.2859  1.3963  2.3451
 5477WAT     H216951   2.849   2.003   5.977 -0.7418 -0.5759  0.0336
 5478WAT      O16952   1.089   4.377   1.485 -0.2253 -0.2241  0.0046
 5478WAT     H116953   1.178   4.412   1.486 -0.0652 -0.5736 -1.0154
 5478WAT     H216954   1.076   4.346   1.395 -1.7482  0.8042 -0.1832
 5479WAT      O16955   6.410   1.283   2.352  0.5296 -0.0235 -0.3401
 5479WAT     H116956   6.430   1.304   2.443 -0.6231 -1.2113  0.2234
 5479WAT     H216957   6.449   1.355   2.302 -0.2722  1.5682  1.1922
 5480WAT      O16958   1.505   5.423   2.223  0.5341 -0.1890 -0.2931
 5480WAT     H116959   1.531   5.381   2.141  0.0823 -0.6630 -0.1981
 5480WAT     H216960   1.577   5.482   2.243  1.4939 -1.3711 -0.1075
 5481WAT      O16961   0.282   1.795   3.187  0.6113 -0.4289 -0.3664
 5481WAT     H116962   0.283   1.884   3.222 -0.3983 -1.3232  2.1246
 5481WAT     H216963   0.374   1.775   3.173  0.9182  0.6800 -0.1014
 5482WAT      O16964   1.920   4.991   4.736  0.3769  0.6622 -0.7087
 5482WAT     H116965   1.848   4.971   4.796  0.9454  1.1422  0.1565
 5482WAT     H216966   1.968   4.909   4.727 -0.7358  0.1079 -1.9643
 5483WAT      O16967   2.769   5.331   3.990  0.7824  0.3984 -0.7735
 5483WAT     H116968   2.835   5.359   3.926  1.0956 -2.0140 -1.6176
 5483WAT     H216969   2.742   5.244   3.960 -2.3261  1.0005 -0.0611
 5484WAT      O16970   2.717   0.568   3.680  0.5175 -0.4886  0.0324
 5484WAT     H116971   2.633   0.563   3.726 -0.5191  1.4486 -1.5152
 5484WAT     H216972   2.700   0.625   3.605  3.2769  0.0747 -0.2531
 5485WAT      O16973   2.708   5.398   2.739 -0.3346  0.0999  0.1510
 5485WAT     H116974   2.800   5.373   2.750 -0.6633 -0.7119  1.3281
 5485WAT     H216975   2.709   5.493   2.728  0.6029  0.1774  0.8420
 5486WAT      O16976   1.781   5.229   3.922  0.7402  0.2576 -0.1880
 5486WAT     H116977   1.752   5.149   3.879  0.6173  0.2221 -0.0400
 5486WAT     H216978   1.733   5.231   4.004  1.5700 -0.0902  0.3212
 5487WAT      O16979   0.580   0.768   1.811  0.7377 -0.0574  0.0254
 5487WAT     H116980   0.627   0.774   1.894  4.0428  1.1406 -1.7092
 5487WAT     H216981   0.562   0.675   1.799  0.3358 -0.2630  1.9581
 5488WAT      O16982   7.411   4.595   2.882 -0.0137 -0.0542  0.0989
 5488WAT     H116983   7.380   4.504   2.877 -3.2529  0.9985 -3.1264
 5488WAT     H216984   7.504   4.590   2.859 -0.8443 -2.3991 -3.6216
 5489WAT      O16985   2.070   5.300   4.275 -0.2663  0.0183 -0.2487
 5489WAT     H116986   1.988   5.348   4.258  0.0920  0.0973 -1.9447
 5489WAT     H216987   2.048   5.209   4.256  0.3546  0.2123 -2.1269
 5490WAT      O16988   3.067   1.117   4.032  0.2660  0.2214  0.1437
 5490WAT     H116989   3.065   1.158   4.118 -0.1723 -0.0659  0.2770
 5490WAT     H216990   3.082   1.189   3.971  2.0966  0.2490  0.5580
 5491WAT      O16991   2.093   0.043   4.962 -0.0386  0.0880 -0.0642
 5491WAT     H116992   2.075  -0.013   5.037  0.3883  0.2859  0.1891
 5491WAT     H216993   2.112  -0.017   4.890 -0.1574 -0.0941  0.0583
 5492WAT      O16994   0.960   3.361   2.985  0.0128 -0.4857  0.1301
 5492WAT     H116995   1.047   3.385   2.954 -0.1680 -1.2081 -1.0018
 5492WAT     H216996   0.903   3.370   2.909 -1.1719  1.1545  1.1277
 5493WAT      O16997   2.933   5.658   4.539  0.7411  0.1493  0.5390
 5493WAT     H116998   2.986   5.581   4.519 -0.3704 -0.9023  1.4987
 5493WAT     H216999   2.849   5.641   4.497  1.2390  2.0808 -1.5128
 5494WAT      O17000   6.636   4.713   1.656  0.0753  0.1921  0.2369
 5494WAT     H117001   6.564   4.657   1.688  0.2437  1.3406  2.8538
 5494WAT     H217002   6.597   4.762   1.584 -2.0204  1.1838  1.9318
 5495WAT      O17003   1.926   5.990   4.755 -0.7429  0.6438  0.1191
 5495WAT     H117004   1.916   6.006   4.661 -1.2302  0.8778  0.2068
 5495WAT     H217005   1.943   5.896   4.761  0.3699  0.8072 -0.2747
 5496WAT      O17006   1.509   5.385   3.987  0.5802 -0.1850  0.2783
 5496WAT     H117007   1.444   5.355   3.924 -0.9549  2.2891  0.5584
 5496WAT     H217008   1.535   5.471   3.956  0.2516  0.8562  2.6267
 5497WAT      O17009   0.815   4.074   4.408 -0.4874  0.4832  0.1183
 5497WAT     H117010   0.843   4.165   4.404 -0.6417  0.5016 -0.6648
 5497WAT     H217011   0.837   4.038   4.322  0.8086 -0.5871  0.8507
 5498WAT      O17012   0.226   3.744   4.270 -0.0048 -0.3287  0.0874
 5498WAT     H117013   0.213   3.686   4.345 -0.3848 -1.7511 -1.0132
 5498WAT     H217014   0.265   3.823   4.306 -0.4899 -0.8382  1.8170
 5499WAT      O17015   2.243   5.191   3.642 -0.2200 -0.0423 -0.2849
 5499WAT     H117016   2.236   5.245   3.720  0.5835  0.6205 -0.6585
 5499WAT     H217017   2.180   5.229   3.580 -0.9742 -0.6663  0.0813
 5500WAT      O17018   1.051   3.371   1.349  0.1217 -0.6700 -0.7490
 5500WAT     H117019   0.994   3.428   1.296 -1.0228  0.8104  1.8916
 5500WAT     H217020   1.094   3.315   1.285 -1.1786  0.9722 -3.2357
 5501WAT      O17021   0.563   0.193   2.301  0.2089 -0.0835  0.3223
 5501WAT     H117022   0.530   0.196   2.391 -0.0161  2.1257  0.2281
 5501WAT     H217023   0.503   0.248   2.251  0.4585 -1.0950 -1.1655
 5502WAT      O17024   0.708   6.020   2.034 -0.1691 -0.0141 -0.2222
 5502WAT     H117025   0.781   6.057   1.984  1.1652 -1.3140  0.6588
 5502WAT     H217026   0.735   6.031   2.125 -0.1193 -2.2868  0.0791
 5503WAT      O17027   6.870   5.520   2.569 -0.3612 -0.3359  0.1428
 5503WAT     H117028   6.782   5.484   2.575 -1.1869  1.3745 -1.0448
 5503WAT     H217029   6.888   5.555   2.656 -0.4894 -1.4066  0.6218
 5504WAT      O17030   3.056   0.669   3.558 -0.3407 -0.4171 -0.4896
 5504WAT     H117031   3.103   0.714   3.628  0.7635 -0.3882 -1.2220
 5504WAT     H217032   2.992   0.733   3.527  1.1078  0.6554 -1.4171
 5505WAT      O17033   2.607   5.617   2.375  0.0506  0.2176 -0.0596
 5505WAT     H117034   2.531   5.576   2.334 -0.2099 -1.4871  1.9477
 5505WAT     H217035   2.658   5.544   2.410  2.1183  1.3815 -0.4710
 5506WAT      O17036   0.094   3.698   1.449 -0.0394 -0.2634 -0.3095
 5506WAT     H117037   0.010   3.667   1.483 -1.0467  0.8333 -1.6597
 5506WAT     H217038   0.125   3.627   1.393 -0.6643 -0.2310 -0.7174
 5507WAT      O17039   6.071   5.145   2.242 -0.0049 -0.2900  0.7843
 5507WAT     H117040   6.027   5.084   2.184  0.6802  0.6202 -0.7494
 5507WAT     H217041   6.164   5.122   2.235  0.2323  0.7281  0.3991
 5508WAT      O17042   1.529   5.672   1.568 -0.1981  0.1459  0.1962
 5508WAT     H117043   1.563   5.593   1.526 -2.5890 -0.7813 -0.1801
 5508WAT     H217044   1.480   5.639   1.644  0.2787  1.4409  1.1092
 5509WAT      O17045   0.558   4.235   2.691  0.4602 -0.4368  0.6376
 5509WAT     H117046   0.517   4.284   2.763  1.0148 -0.3652  0.9147
 5509WAT     H217047   0.604   4.164   2.734  2.2911  0.6295  0.5525
 5510WAT      O17048   2.912   4.875   2.455 -0.1280  0.1506 -0.1272
 5510WAT     H117049   2.824   4.854   2.485  0.4512 -1.3127  0.6570
 5510WAT     H217050   2.967   4.806   2.493  1.3343  0.9676 -0.6946
 5511WAT      O17051   6.646   5.223   2.294 -0.2291  0.2034  0.5058
 5511WAT     H117052   6.677   5.151   2.239  2.1778  0.4492  1.4152
 5511WAT     H217053   6.579   5.183   2.350 -0.3312 -0.8466 -0.3340
 5512WAT      O17054   0.748   4.761   2.617 -0.2921 -0.5689 -0.1439
 5512WAT     H117055   0.768   4.760   2.523 -0.9473 -0.5266 -0.2912
 5512WAT     H217056   0.722   4.671   2.637  0.1245 -0.6450  0.0620
 5513WAT      O17057   1.083   5.473   1.892  0.0228  0.5330 -0.2193
 5513WAT     H117058   0.988   5.485   1.901  0.2266  1.2838  1.3154
 5513WAT     H217059   1.116   5.480   1.981  1.5099  0.0266 -0.7073
 5514WAT      O17060   1.016   0.933   1.508 -0.0888 -0.0601  0.3456
 5514WAT     H117061   1.105   0.899   1.501 -0.9226 -2.0253 -1.6789
 5514WAT     H217062   0.993   0.960   1.419 -1.1893  1.4030  1.0177
 5515WAT      O17063   3.175   5.968   0.898  0.1804 -0.0309 -0.0966
 5515WAT     H117064   3.177   6.040   0.962  1.7350  0.5006 -0.6988
 5515WAT     H217065   3.259   5.974   0.853 -0.3502 -1.2159 -1.3008
 5516WAT      O17066   1.667   5.371   2.908 -0.3288  0.2726 -0.6373
 5516WAT     H117067   1.651   5.446   2.965 -1.2905  0.6182 -1.3504
 5516WAT     H217068   1.580   5.342   2.881 -0.1551 -2.4178  1.2615
 5517WAT      O17069   1.378   0.191   1.933  0.4729 -0.0102  0.5790
 5517WAT     H117070   1.465   0.153   1.922  0.6983  0.4701  0.6815
 5517WAT     H217071   1.330   0.165   1.854  1.1304  0.8508 -0.1219
 5518WAT      O17072   2.631   5.865   1.241  0.2264 -0.1051 -0.4228
 5518WAT     H117073   2.634   5.939   1.302  1.0418 -1.1604  0.8657
 5518WAT     H217074   2.641   5.906   1.155 -0.6643  1.3949  0.1478
 5519WAT      O17075   2.071   6.073   0.260 -0.9306  0.2950  0.2006
 5519WAT     H117076   2.074   6.163   0.291  2.7221  0.5378 -0.4111
 5519WAT     H217077   2.060   6.080   0.165  0.4242  0.2261  0.0126
 5520WAT      O17078   0.327   5.480   3.573 -0.3430 -0.1092  0.9253
 5520WAT     H117079   0.419   5.503   3.585 -0.2107 -1.0763  1.8915
 5520WAT     H217080   0.303   5.523   3.491  1.2938 -0.7946  0.0265
 5521WAT      O17081   2.251   5.346   4.569  0.2130 -0.3062  0.3686
 5521WAT     H117082   2.248   5.437   4.540  0.9417 -0.3550  0.1066
 5521WAT     H217083   2.160   5.318   4.571  0.0315  0.2225 -0.2118
 5522WAT      O17084   0.320   3.288   1.841  0.6470  0.1341 -0.0611
 5522WAT     H117085   0.293   3.244   1.921  0.0545 -0.9219 -0.8229
 5522WAT     H217086   0.323   3.219   1.775  1.8610  0.8503 -0.7945
 5523WAT      O17087   0.541   4.236   4.248  0.1836 -0.3895  0.0182
 5523WAT     H117088   0.634   4.226   4.268  0.2809  1.8349  1.0414
 5523WAT     H217089   0.496   4.193   4.321  0.3256 -2.4091 -1.0111
 5524WAT      O17090   0.826   0.187   2.270  0.2481 -0.2248 -0.0655
 5524WAT     H117091   0.848   0.255   2.333 -3.3591 -0.3286  1.5491
 5524WAT     H217092   0.731   0.190   2.263  0.1998 -2.7798 -2.6675
 5525WAT      O17093   1.544   3.780   4.251  0.7458 -0.0913  0.2117
 5525WAT     H117094   1.531   3.864   4.208 -2.3350 -0.1749  0.7356
 5525WAT     H217095   1.601   3.731   4.191 -1.6577  0.5294 -2.8451
 5526WAT      O17096   7.354   5.740   2.391 -0.0548  0.1818  0.2137
 5526WAT     H117097   7.353   5.730   2.295 -0.5768 -1.1913  0.3402
 5526WAT     H217098   7.263   5.759   2.414 -0.4661 -1.9830  0.6243
 5527WAT      O17099   1.905   3.534   0.434  0.3573  0.3172 -0.1976
 5527WAT     H117100   1.959   3.613   0.439 -2.1799  2.1076  1.5698
 5527WAT     H217101   1.948   3.472   0.493  0.6577  1.5693  0.9374
 5528WAT      O17102   1.371   4.357   1.277 -0.5567 -0.0676  0.2366
 5528WAT     H117103   1.394   4.410   1.353 -0.5906  1.9185 -1.0547
 5528WAT     H217104   1.379   4.418   1.203 -1.4642 -1.6641 -1.2297
 5529WAT      O17105   2.498   4.883   2.157 -0.6536  0.2739  0.0475
 5529WAT     H117106   2.435   4.825   2.201 -1.1337  0.1442 -0.7939
 5529WAT     H217107   2.445   4.930   2.092 -0.6053  2.7268  1.6387
 5530WAT      O17108   6.977   5.859   2.865  0.7731  0.3498  0.5144
 5530WAT     H117109   6.926   5.868   2.945  0.1530 -1.4800  0.3727
 5530WAT     H217110   6.928   5.910   2.800  0.5352  0.7148  0.9757
 5531WAT      O17111   0.467   0.478   2.292  0.1707 -0.4891 -0.1784
 5531WAT     H117112   0.554   0.516   2.305 -0.0557  0.1008 -0.3771
 5531WAT     H217113   0.426   0.481   2.379 -1.3720  3.5262 -0.8378
 5532WAT      O17114   1.767   4.820   1.105 -0.2535  0.1271  0.1726
 5532WAT     H117115   1.701   4.847   1.170  1.5881  1.8953  1.4170
 5532WAT     H217116   1.814   4.900   1.083  1.6097 -1.0958 -0.5356
 5533WAT      O17117   1.984   5.140   5.572  0.5222 -0.1495  0.3695
 5533WAT     H117118   2.078   5.148   5.554  0.2648  2.0969 -0.2154
 5533WAT     H217119   1.976   5.160   5.665  0.7843 -2.2850  0.9070
 5534WAT      O17120   0.540   5.613   2.950  0.5399 -0.1455 -0.4110
 5534WAT     H117121   0.594   5.646   3.023 -0.5378  1.2742 -0.2181
 5534WAT     H217122   0.480   5.685   2.930  1.0221 -0.3526 -2.9639
 5535WAT      O17123   1.395   4.687   1.642  0.2051 -0.8816 -0.1494
 5535WAT     H117124   1.458   4.731   1.699 -0.0369  2.4995 -2.2153
 5535WAT     H217125   1.321   4.666   1.700  0.0937  2.1202  0.9676
 5536WAT      O17126   0.892   0.471   1.923 -0.8763 -0.5281 -0.0620
 5536WAT     H117127   0.876   0.540   1.858  0.3569  0.0485  0.2161
 5536WAT     H217128   0.877   0.390   1.875  1.3877 -0.1530 -1.5224
 5537WAT      O17129   1.733   5.527   2.393 -0.0422 -0.2664  0.3432
 5537WAT     H117130   1.758   5.513   2.485  0.5899 -0.0283  0.2059
 5537WAT     H217131   1.770   5.611   2.370 -0.6985 -0.0536  0.0349
 5538WAT      O17132   2.044   4.774   3.513 -0.4389 -0.5400 -0.2444
 5538WAT     H117133   2.006   4.842   3.459  0.9043  0.0709 -0.4749
 5538WAT     H217134   2.028   4.802   3.603 -1.7882 -1.0467 -0.3052
 5539WAT      O17135   7.026   5.693   2.386  0.3887  0.2542  0.0173
 5539WAT     H117136   7.054   5.622   2.328 -0.1937 -0.1833  0.2548
 5539WAT     H217137   6.956   5.654   2.439 -0.8050  1.3716 -0.6903
 5540WAT      O17138   1.040   1.180   3.870  1.1487 -0.0225 -0.6105
 5540WAT     H117139   1.039   1.188   3.965 -0.8944  1.1492 -0.6816
 5540WAT     H217140   1.011   1.091   3.853  1.7203 -0.3041 -0.1532
 5541WAT      O17141   0.148   5.607   3.729  0.4924  0.1389 -0.4567
 5541WAT     H117142   0.095   5.676   3.689  0.8577 -0.8053 -2.7431
 5541WAT     H217143   0.220   5.594   3.667  2.0644 -0.3185  1.3567
 5542WAT      O17144   5.500   5.070   3.441 -0.0867 -0.0522 -0.1197
 5542WAT     H117145   5.520   4.977   3.426  1.6533  0.1316  0.9198
 5542WAT     H217146   5.580   5.116   3.417 -0.3120  1.0275  1.1259
 5543WAT      O17147   3.520   0.392   2.366  0.0717  0.0860  0.3386
 5543WAT     H117148   3.614   0.412   2.363  0.1387 -0.3010 -1.4782
 5543WAT     H217149   3.510   0.339   2.445  0.9435  2.0265  1.8482
 5544WAT      O17150   0.138   5.262   2.610 -0.2219 -0.2289 -0.2044
 5544WAT     H117151   0.184   5.215   2.540  1.2614 -0.4470  0.8803
 5544WAT     H217152   0.045   5.251   2.588  0.1386 -2.0150 -1.0382
 5545WAT      O17153   6.776   5.551   3.178  0.0615 -0.2232  0.0113
 5545WAT     H117154   6.808   5.583   3.262  0.5645  0.3640 -0.4022
 5545WAT     H217155   6.780   5.455   3.186  2.0808 -0.1942 -0.0618
 5546WAT      O17156   2.101   0.033   4.157  0.1573  0.1855 -0.0289
 5546WAT     H117157   2.028   0.068   4.209  0.8519  1.8329 -0.1046
 5546WAT     H217158   2.124   0.105   4.098  3.2514  0.5450  1.4675
 5547WAT      O17159   2.358   6.089   5.939  0.7719 -0.1674  0.1389
 5547WAT     H117160   2.412   6.154   5.894  2.2182 -0.2529  1.6908
 5547WAT     H217161   2.403   6.006   5.925 -0.3490 -0.6674 -0.6833
 5548WAT      O17162   1.343   3.449   2.411 -0.3051 -0.1041  0.1221
 5548WAT     H117163   1.318   3.357   2.403  0.7008 -0.2713 -1.3512
 5548WAT     H217164   1.432   3.447   2.445 -0.3473  0.3365  0.2626
 5549WAT      O17165   1.175   5.734   2.572 -0.4038  0.2124  0.3266
 5549WAT     H117166   1.159   5.740   2.478  1.0855  1.6109  0.1196
 5549WAT     H217167   1.103   5.784   2.612  0.6507  2.3641 -0.2979
 5550WAT      O17168   1.716   5.659   2.024 -0.3889  0.1187  0.8248
 5550WAT     H117169   1.680   5.589   1.970 -0.3636  0.0806  0.8573
 5550WAT     H217170   1.646   5.724   2.029 -0.3167  0.2147  0.5764
 5551WAT      O17171   7.045   5.866   3.790 -0.3899 -0.2479 -0.1940
 5551WAT     H117172   7.115   5.802   3.782  0.1491  0.2758  0.2738
 5551WAT     H217173   7.084   5.940   3.836 -1.1127  0.2592 -0.3670
 5552WAT      O17174   2.391   4.094   2.857 -0.6522  0.0882 -0.0628
 5552WAT     H117175   2.390   4.011   2.905  0.4153 -0.3759 -0.8016
 5552WAT     H217176   2.443   4.153   2.911  1.1523 -0.6416 -0.9030
 5553WAT      O17177   1.089   5.640   2.894  0.2858 -0.2445  0.6123
 5553WAT     H117178   1.181   5.616   2.889  0.4517  0.6764 -1.1685
 5553WAT     H217179   1.044   5.575   2.840  0.0585  0.1568  0.3183
 5554WAT      O17180   1.402   5.781   2.841 -0.3462 -0.0733  0.2043
 5554WAT     H117181   1.400   5.686   2.832  4.0324 -0.6736  2.7088
 5554WAT     H217182   1.403   5.813   2.751  1.1842 -2.6658 -0.8110
 5555WAT      O17183   1.513   4.453   3.034  0.8693  0.0401 -0.4387
 5555WAT     H117184   1.445   4.457   2.966  1.8328 -0.9543 -1.5158
 5555WAT     H217185   1.595   4.452   2.984  1.6760  0.9773  0.8226
 5556WAT      O17186   2.134   5.293   1.323  0.3206  0.3058 -0.4874
 5556WAT     H117187   2.149   5.294   1.229  0.4312  0.3688 -0.4699
 5556WAT     H217188   2.184   5.368   1.356 -0.1159  0.5792 -0.4387
 5557WAT      O17189   2.459   5.263   0.855 -0.3734  0.8435 -0.3704
 5557WAT     H117190   2.437   5.191   0.795 -1.3846  0.5556  0.3292
 5557WAT     H217191   2.529   5.310   0.810  0.6210 -0.8216 -0.6500
 5558WAT      O17192   0.971   5.416   4.039  0.0096  0.0891 -0.6505
 5558WAT     H117193   0.894   5.443   3.990 -0.1926  0.7654  0.0056
 5558WAT     H217194   0.982   5.323   4.020 -1.4949 -0.2300 -0.0524
 5559WAT      O17195   7.333   0.955   2.697 -0.0729 -0.6834 -0.4229
 5559WAT     H117196   7.362   1.018   2.763 -0.2347 -0.7722 -0.2662
 5559WAT     H217197   7.288   1.009   2.631 -2.6645 -0.8971  1.0534
 5560WAT      O17198   1.583   0.716   1.388  0.0445  0.0049 -0.1240
 5560WAT     H117199   1.550   0.805   1.406 -0.8761 -0.3703  0.0924
 5560WAT     H217200   1.534   0.688   1.311 -0.0382 -0.5082  0.1151
 5561WAT      O17201   1.422   0.719   2.272  0.0540  0.2764  0.5399
 5561WAT     H117202   1.400   0.767   2.352  0.1038  1.7401 -0.3043
 5561WAT     H217203   1.492   0.660   2.298  0.7522  1.4334  1.3645
 5562WAT      O17204   1.457   4.613   3.883  0.3070  0.4005  0.7213
 5562WAT     H117205   1.507   4.533   3.901  1.0598  0.6446 -0.2158
 5562WAT     H217206   1.472   4.668   3.960  1.3303  0.3880  0.5460
 5563WAT      O17207   2.302   5.299   2.675 -0.0795  0.4028 -0.2210
 5563WAT     H117208   2.346   5.385   2.672  0.7010  0.0356  0.3722
 5563WAT     H217209   2.209   5.319   2.660  0.1074  1.3381 -0.1892
 5564WAT      O17210   1.911   5.756   1.145 -0.3686  0.5229  0.5599
 5564WAT     H117211   1.857   5.705   1.204 -0.2826 -1.2885 -0.8542
 5564WAT     H217212   2.000   5.748   1.180 -0.5136  0.6893  0.9785
 5565WAT      O17213   2.252   5.351   2.366  0.7823 -0.0667  0.0718
 5565WAT     H117214   2.299   5.386   2.442  2.9059 -2.2450 -0.1267
 5565WAT     H217215   2.264   5.257   2.371 -2.6716 -0.6911 -0.7232
 5566WAT      O17216   1.098   5.822   2.322 -0.3240 -0.3509 -0.3859
 5566WAT     H117217   1.147   5.889   2.275 -1.6880  1.9986  1.3457
 5566WAT     H217218   1.034   5.790   2.258  0.0641  0.3090 -1.1270
 5567WAT      O17219   0.995   4.092   2.496 -0.5752  0.1542 -0.1258
 5567WAT     H117220   1.004   4.142   2.415 -0.7433 -2.2408 -1.7143
 5567WAT     H217221   0.998   4.001   2.468 -3.0425 -0.7842  2.2974
 5568WAT      O17222   1.350   1.210   3.193 -0.0892 -0.3596 -0.6739
 5568WAT     H117223   1.442   1.234   3.185  0.2664 -1.6167 -0.5587
 5568WAT     H217224   1.350   1.133   3.251 -1.3919  0.7595  0.9093
 5569WAT      O17225   0.764   5.143   2.866  0.3181 -0.5578 -0.2523
 5569WAT     H117226   0.671   5.160   2.851 -0.0828 -1.5811  0.9106
 5569WAT     H217227   0.781   5.183   2.952  0.9427 -0.4567 -0.4175
 5570WAT      O17228   0.562   4.662   3.782 -0.9692  0.2576 -0.0572
 5570WAT     H117229   0.519   4.578   3.763 -0.9203  0.2884 -0.3018
 5570WAT     H217230   0.494   4.714   3.824 -1.0424  0.1468 -0.0375
 5571WAT      O17231   0.410   4.997   3.644 -0.4752  0.1569  0.7837
 5571WAT     H117232   0.414   5.063   3.576 -1.8641 -1.1655 -0.6804
 5571WAT     H217233   0.402   4.914   3.597 -0.2814 -0.9303  2.5465
 5572WAT      O17234   2.285   5.935   5.370 -0.0590  0.0152  0.0481
 5572WAT     H117235   2.298   5.858   5.315  0.3264  1.6863 -2.4018
 5572WAT     H217236   2.204   5.975   5.337 -0.2740  0.6666  1.2813
 5573WAT      O17237   2.743   4.785   2.065  0.4626  0.4310 -0.7045
 5573WAT     H117238   2.649   4.788   2.080  0.5818 -2.3202  1.3542
 5573WAT     H217239   2.762   4.692   2.050  2.7356  1.0563 -2.2616
 5574WAT      O17240   2.135   5.794   4.325  0.0094 -0.0384 -0.4902
 5574WAT     H117241   2.204   5.783   4.260 -0.8395  2.3138 -1.9197
 5574WAT     H217242   2.062   5.740   4.293  1.0704 -2.5020  1.0071
 5575WAT      O17243   1.659   0.234   2.723 -0.2509  0.3027 -0.2040
 5575WAT     H117244   1.657   0.255   2.630  1.2547  1.0381 -0.1087
 5575WAT     H217245   1.571   0.254   2.754 -1.3611 -1.7187 -1.7834
 5576WAT      O17246   2.702   5.450   4.487  0.1499 -0.1075  0.4835
 5576WAT     H117247   2.625   5.397   4.506  0.4644 -0.5597  0.5121
 5576WAT     H217248   2.702   5.460   4.392 -0.3639  0.5414  0.5442
 5577WAT      O17249   1.959   4.906   3.765  0.2498 -0.6085  0.1724
 5577WAT     H117250   1.902   4.981   3.752 -0.0572 -0.8543  0.0699
 5577WAT     H217251   1.919   4.857   3.837 -0.2999 -1.3605 -0.6188
 5578WAT      O17252   1.760   5.056   1.308  0.3329 -0.3293  0.0614
 5578WAT     H117253   1.788   5.059   1.216 -0.9636 -0.5497 -0.3622
 5578WAT     H217254   1.796   5.136   1.347 -0.3326  0.5107 -1.0056
 5579WAT      O17255   1.499   4.039   4.139  0.2628 -0.2975 -0.0786
 5579WAT     H117256   1.578   4.088   4.116  0.3734 -0.1026  0.6862
 5579WAT     H217257   1.429   4.083   4.091  0.3968  0.4892  0.4256
 5580WAT      O17258   1.550   3.040   0.209 -0.1087 -0.2836 -0.3080
 5580WAT     H117259   1.613   3.073   0.145 -0.2798  0.1510 -0.2537
 5580WAT     H217260   1.482   2.999   0.156 -0.0404 -0.2939 -0.3875
 5581WAT      O17261   7.166   3.707   1.947  0.7809 -0.0462 -0.3997
 5581WAT     H117262   7.249   3.664   1.926 -0.7464 -2.5698 -1.6628
 5581WAT     H217263   7.100   3.656   1.902 -1.4968  2.0557  0.3306
 5582WAT      O17264   0.452   5.919   2.031  0.1047  0.2858  0.0163
 5582WAT     H117265   0.533   5.970   2.034  0.4032 -0.1756 -0.0962
 5582WAT     H217266   0.411   5.933   2.116  0.6334 -0.0059  0.3269
 5583WAT      O17267   1.717   4.301   3.290  0.0305 -0.5189  0.0426
 5583WAT     H117268   1.702   4.336   3.378 -0.3414 -0.7468  0.0712
 5583WAT     H217269   1.659   4.352   3.233 -1.8090 -2.1929  0.3197
 5584WAT      O17270   1.999   5.761   0.864 -1.2261 -0.2529  0.1943
 5584WAT     H117271   1.954   5.768   0.949 -2.2227 -1.7059 -0.1636
 5584WAT     H217272   2.058   5.687   0.874 -0.6731  0.1387 -0.1111
 5585WAT      O17273   3.743   5.190   0.944 -0.0730  0.4613 -0.1715
 5585WAT     H117274   3.674   5.125   0.959  0.8139 -0.9197 -1.6902
 5585WAT     H217275   3.757   5.231   1.029 -0.2441 -1.7656  0.9969
 5586WAT      O17276   6.791   5.139   3.453 -0.0156  0.2679  0.7170
 5586WAT     H117277   6.873   5.155   3.407  0.3584 -0.5602  1.0837
 5586WAT     H217278   6.728   5.195   3.408  0.9396  1.6688  1.0487
 5587WAT      O17279   1.711   5.017   3.732 -0.1505  0.5043  0.1811
 5587WAT     H117280   1.648   4.978   3.792  0.7359 -1.0975  0.1248
 5587WAT     H217281   1.658   5.051   3.660 -0.8863 -1.9273 -0.4914
 5588WAT      O17282   0.827   4.408   3.480  0.2330 -0.3794  0.0519
 5588WAT     H117283   0.840   4.439   3.569  0.1380  0.5680 -0.2533
 5588WAT     H217284   0.912   4.372   3.454  0.6805  0.6599  0.0307
 5589WAT      O17285   0.695   4.016   2.530 -0.3067  0.4307 -0.0940
 5589WAT     H117286   0.772   4.063   2.499  0.3093 -1.0419 -0.9052
 5589WAT     H217287   0.722   3.977   2.614 -0.9795  1.8829  0.8333
 5590WAT      O17288   1.829   0.543   2.881 -0.4897  0.5638 -0.1848
 5590WAT     H117289   1.871   0.556   2.796  0.8453 -2.3732 -0.0950
 5590WAT     H217290   1.825   0.448   2.891  0.7710  0.7576  3.6457
 5591WAT      O17291   0.802   5.429   2.012  0.0067  0.0632 -0.4045
 5591WAT     H117292   0.782   5.347   2.057 -0.4985 -0.0003 -0.7334
 5591WAT     H217293   0.720   5.480   2.018  0.8274  1.2929  1.3600
 5592WAT      O17294   2.537   4.748   4.161 -0.2727 -0.5842 -0.2086
 5592WAT     H117295   2.581   4.802   4.095  0.2331 -0.0884  0.5262
 5592WAT     H217296   2.596   4.673   4.174 -0.0181 -0.3089  0.2181
 5593WAT      O17297   1.709   5.747   2.647 -0.1516 -0.1948  0.3163
 5593WAT     H117298   1.751   5.661   2.644  0.9727  0.3281  0.3291
 5593WAT     H217299   1.617   5.730   2.626  0.1449 -1.3381 -0.1440
 5594WAT      O17300   3.198   4.999   1.184  0.3661 -0.1990  0.8570
 5594WAT     H117301   3.232   5.024   1.270  1.4954 -0.8894  0.6392
 5594WAT     H217302   3.277   4.982   1.132 -0.2920  1.0526 -0.5856
 5595WAT      O17303   0.680   3.361   2.622 -0.7110 -0.2141 -0.5259
 5595WAT     H117304   0.637   3.276   2.614 -1.3197 -0.0623  0.9631
 5595WAT     H217305   0.660   3.391   2.710  0.8630  0.7398 -0.4434
 5596WAT      O17306   0.792   5.555   3.290  0.2925 -0.0881  0.2571
 5596WAT     H117307   0.800   5.645   3.259  0.2293 -0.2103 -0.1115
 5596WAT     H217308   0.882   5.529   3.310  0.3703 -0.1299 -0.1543
 5597WAT      O17309   6.607   5.461   2.583  0.1026 -0.2567 -0.1682
 5597WAT     H117310   6.553   5.489   2.657  2.8841  3.5362  0.7115
 5597WAT     H217311   6.612   5.538   2.527  0.9615 -1.9346 -2.5587
 5598WAT      O17312   2.608   5.392   5.046 -0.0261 -0.2442 -0.2201
 5598WAT     H117313   2.683   5.400   5.104 -0.0750  1.4618 -0.3356
 5598WAT     H217314   2.622   5.459   4.979 -0.7120 -1.1636 -1.3342
 5599WAT      O17315   1.366   0.799   2.526 -0.4725  0.2573  0.0066
 5599WAT     H117316   1.362   0.884   2.570 -1.8099 -0.7399  2.0247
 5599WAT     H217317   1.444   0.757   2.562 -1.0510 -0.1982  0.7690
 5600WAT      O17318   1.159   3.496   4.722 -0.3212 -0.1568 -0.0937
 5600WAT     H117319   1.114   3.495   4.806  1.0673 -0.0190  0.6720
 5600WAT     H217320   1.126   3.419   4.676 -1.6071  0.1516  0.2736
 5601WAT      O17321   1.558   5.690   1.035  0.6501  0.1536  0.3340
 5601WAT     H117322   1.646   5.675   1.001  0.2923  3.7290 -2.7775
 5601WAT     H217323   1.501   5.637   0.979  0.5970 -0.2299  0.7397
 5602WAT      O17324   0.669   2.940   1.618  0.7048  0.1292 -0.1942
 5602WAT     H117325   0.739   2.939   1.684  1.0949 -1.9810 -0.5846
 5602WAT     H217326   0.709   2.902   1.540  0.0464  1.9351 -1.4909
 5603WAT      O17327   2.291   5.156   4.792 -0.4652 -0.0452 -0.1028
 5603WAT     H117328   2.231   5.152   4.866  0.1996  1.5961  0.5774
 5603WAT     H217329   2.293   5.249   4.768 -0.6036 -0.5055 -2.1537
 5604WAT      O17330   0.916   3.368   1.723  0.2537  0.7513  0.5028
 5604WAT     H117331   0.891   3.461   1.726  0.3874  0.9967 -2.4183
 5604WAT     H217332   0.833   3.322   1.712  0.3664  0.8041 -0.7099
 5605WAT      O17333   1.670   5.438   1.844 -0.1778 -0.4400  0.2258
 5605WAT     H117334   1.611   5.377   1.888 -0.6617  0.8037  1.3883
 5605WAT     H217335   1.678   5.404   1.755  1.7928 -3.7615  1.4900
 5606WAT      O17336   2.040   1.472   0.564 -0.3181 -0.5255 -0.2742
 5606WAT     H117337   2.074   1.557   0.592  2.9374 -1.9790  0.6894
 5606WAT     H217338   1.972   1.493   0.500  1.4759  2.7619 -1.3259
 5607WAT      O17339   1.975   3.556   4.399  0.4261  0.9078  0.3067
 5607WAT     H117340   1.986   3.548   4.304 -0.4041  0.8425  0.2145
 5607WAT     H217341   1.890   3.517   4.417  0.7931  0.4690  1.1494
 5608WAT      O17342   1.247   4.566   2.024 -0.1163  0.0858  0.5260
 5608WAT     H117343   1.341   4.584   2.015 -0.0716 -1.0368 -2.1447
 5608WAT     H217344   1.208   4.597   1.943 -1.7198 -1.4536  0.6358
 5609WAT      O17345   2.812   5.229   3.422  0.4813 -0.5343  0.6518
 5609WAT     H117346   2.800   5.324   3.418  1.1829 -0.4871 -1.3501
 5609WAT     H217347   2.905   5.218   3.442  1.1165 -0.7265 -2.1008
 5610WAT      O17348   1.905   4.341   2.104  0.7109  0.0742  0.0396
 5610WAT     H117349   1.986   4.343   2.155  0.4358  1.7787  0.4476
 5610WAT     H217350   1.922   4.277   2.034  2.7236  1.0020 -0.3850
 5611WAT      O17351   1.145   5.523   2.163 -0.1015  0.4064 -0.0955
 5611WAT     H117352   1.087   5.518   2.239 -1.1625  1.1691 -0.8306
 5611WAT     H217353   1.231   5.544   2.201 -0.7518  1.4987  0.8441
 5612WAT      O17354   1.794   4.319   1.172  0.2462  0.1059 -0.4932
 5612WAT     H117355   1.758   4.233   1.152  0.3380  0.1731 -0.9543
 5612WAT     H217356   1.734   4.381   1.131  0.8023  0.2219 -1.1412
 5613WAT      O17357   1.700   3.610   2.261  0.3226  0.4317 -0.0802
 5613WAT     H117358   1.761   3.566   2.321  0.1771 -1.3490 -1.1680
 5613WAT     H217359   1.700   3.701   2.290  0.5778 -0.2546  2.3482
 5614WAT      O17360   3.248   6.135   1.122 -0.4273 -0.2880  0.8076
 5614WAT     H117361   3.223   6.221   1.089 -0.6914 -0.2775  1.0311
 5614WAT     H217362   3.337   6.123   1.091 -0.1876  0.3077  1.2431
 5615WAT      O17363   3.450   4.513   2.239 -0.3762 -0.3323  0.2688
 5615WAT     H117364   3.493   4.510   2.324  1.4705 -1.2289 -0.6314
 5615WAT     H217365   3.385   4.583   2.247  2.1407  2.0895  1.3302
 5616WAT      O17366   0.673   4.152   1.309 -0.5368  0.3466  0.2642
 5616WAT     H117367   0.605   4.180   1.370 -1.3884 -0.8798 -0.0757
 5616WAT     H217368   0.755   4.164   1.357 -0.9659  1.9725  0.6274
 5617WAT      O17369   6.558   3.820   2.841  0.0070  0.1790 -0.8417
 5617WAT     H117370   6.633   3.875   2.865  0.1775  0.7206 -2.4616
 5617WAT     H217371   6.487   3.851   2.898  0.7579  0.2885  0.0704
 5618WAT      O17372   0.232   0.496   2.106  0.5478 -0.3411 -0.1364
 5618WAT     H117373   0.322   0.513   2.134  0.6905 -0.2454 -0.6406
 5618WAT     H217374   0.189   0.461   2.184  0.7574  0.5405  0.3912
 5619WAT      O17375   0.478   6.075   1.766 -0.1685 -0.2382  0.2678
 5619WAT     H117376   0.477   6.018   1.842  0.1431  1.1359  1.3375
 5619WAT     H217377   0.414   6.143   1.785 -1.8729 -1.1523 -1.7665
 5620WAT      O17378   2.251   5.132   5.483 -0.5625  0.0914 -0.4457
 5620WAT     H117379   2.305   5.078   5.540 -0.2235 -0.4415 -1.2486
 5620WAT     H217380   2.288   5.118   5.395 -0.7330  1.3028 -0.7243
 5621WAT      O17381   3.414   3.181   0.739  0.0834 -0.1536 -0.3877
 5621WAT     H117382   3.384   3.255   0.686  0.4291  1.6769  1.7918
 5621WAT     H217383   3.402   3.210   0.830  1.9477 -2.0617  0.5712
 5622WAT      O17384   2.521   5.883   5.813  0.2281  0.4483  0.2041
 5622WAT     H117385   2.498   5.796   5.783 -0.3175  0.9773 -0.9695
 5622WAT     H217386   2.599   5.906   5.762 -0.5150  1.2291 -0.6024
 5623WAT      O17387   3.783   2.669   0.954 -0.5242  0.1196  0.2026
 5623WAT     H117388   3.865   2.713   0.975 -0.1376 -1.0234  1.2369
 5623WAT     H217389   3.746   2.644   1.039 -1.2362 -0.6085 -0.2955
 5624WAT      O17390   5.691   4.731   0.733  0.2988 -0.0945  0.2825
 5624WAT     H117391   5.596   4.733   0.730  0.3093  1.5451  0.0149
 5624WAT     H217392   5.715   4.657   0.678 -0.7930  0.3069 -0.7711
 5625WAT      O17393   6.962   4.116   2.665 -0.3892  0.5991 -0.4740
 5625WAT     H117394   6.953   4.208   2.642 -1.6714  0.7603  0.5938
 5625WAT     H217395   6.949   4.112   2.760  0.0598 -0.6325 -0.4339
 5626WAT      O17396   3.434   0.893   6.008  0.4117 -0.3072 -0.0991
 5626WAT     H117397   3.353   0.913   5.961  0.0976  1.3712  1.0448
 5626WAT     H217398   3.504   0.918   5.946  0.0268  0.3735 -0.2733
 5627WAT      O17399   2.619   3.502   1.867 -0.0295  0.1181  0.7313
 5627WAT     H117400   2.705   3.468   1.888  0.6366  1.3647  0.1493
 5627WAT     H217401   2.570   3.496   1.949  0.4438 -1.0402  0.9462
 5628WAT      O17402   2.124   5.028   1.707  0.4658 -0.1800 -0.1917
 5628WAT     H117403   2.199   5.071   1.667 -0.3743  1.2316 -0.3232
 5628WAT     H217404   2.146   4.934   1.706  2.1552  0.1952 -0.3058
 5629WAT      O17405   0.904   4.143   2.776  0.3654 -0.5048  0.2544
 5629WAT     H117406   0.918   4.238   2.787 -2.6885 -0.1495  1.8836
 5629WAT     H217407   0.940   4.125   2.689  0.0402  2.3826 -0.6054
 5630WAT      O17408   1.082   3.570   0.949 -0.4963 -0.1634  0.6456
 5630WAT     H117409   1.066   3.635   1.017  0.2942 -0.5919  1.2543
 5630WAT     H217410   1.017   3.501   0.966 -0.8661  0.1219  0.4270
 5631WAT      O17411   1.897   4.780   1.572  0.3889  0.5846  0.2004
 5631WAT     H117412   1.980   4.774   1.524  1.0259  1.1160  1.1761
 5631WAT     H217413   1.889   4.873   1.593 -0.4313  0.5256  0.1574
 5632WAT      O17414   4.043   4.616   1.373  0.2208  0.4237  0.5740
 5632WAT     H117415   4.017   4.653   1.457  0.7529  1.8806  0.1272
 5632WAT     H217416   4.139   4.615   1.376  0.2360  0.0917  0.1417
 5633WAT      O17417   2.159   4.374   2.700 -0.0967 -0.0226 -0.0938
 5633WAT     H117418   2.179   4.348   2.790 -0.0085 -0.3704 -0.2103
 5633WAT     H217419   2.239   4.354   2.651 -0.1818  0.0627 -0.2685
 5634WAT      O17420   3.007   3.778   0.481  0.2922 -0.2758 -0.1344
 5634WAT     H117421   2.966   3.691   0.478  1.0662 -0.6264 -1.0269
 5634WAT     H217422   3.101   3.759   0.493  0.3142  0.4846  1.1309
 5635WAT      O17423   1.614   5.342   0.784 -0.1683 -0.6724  0.0158
 5635WAT     H117424   1.617   5.429   0.824 -0.5455 -0.6734  0.0444
 5635WAT     H217425   1.694   5.337   0.732 -1.4142  0.7203 -2.1469
 5636WAT      O17426   2.176   3.718   2.635  0.0486 -0.1240  0.2941
 5636WAT     H117427   2.179   3.804   2.677  1.8025  0.8169 -1.5534
 5636WAT     H217428   2.255   3.673   2.667 -0.7721 -1.0394  1.1241
 5637WAT      O17429   0.741   0.573   2.306  0.0927  0.7812 -0.4573
 5637WAT     H117430   0.789   0.647   2.342  0.7519  0.2442 -0.2061
 5637WAT     H217431   0.794   0.497   2.328 -0.5000  0.2433 -0.8348
 5638WAT      O17432   3.186   4.310   0.770 -0.2220 -0.0536  0.6658
 5638WAT     H117433   3.199   4.396   0.810  1.4718 -1.3147  3.0643
 5638WAT     H217434   3.243   4.311   0.693 -1.0415  1.3010  0.0372
 5639WAT      O17435   1.850   5.295   0.577 -0.1631  0.4091  0.3824
 5639WAT     H117436   1.866   5.286   0.484 -1.1114 -0.9746  0.3211
 5639WAT     H217437   1.880   5.383   0.599 -0.6394  1.0440 -1.3811
 5640WAT      O17438   1.449   4.335   2.016  0.4455  0.0105  0.2271
 5640WAT     H117439   1.458   4.376   1.930  1.8502  1.2380  0.9044
 5640WAT     H217440   1.457   4.407   2.078  0.9497 -1.0342  1.4335
 5641WAT      O17441   2.145   3.574   1.224  0.8359 -0.0652  0.4403
 5641WAT     H117442   2.214   3.589   1.289 -0.9554 -0.2705  2.4880
 5641WAT     H217443   2.162   3.485   1.192  2.7242  0.6390 -0.7304
 5642WAT      O17444   2.839   6.103   4.181 -0.5864 -0.0405 -0.1011
 5642WAT     H117445   2.907   6.129   4.243  0.5448 -0.2442 -1.2221
 5642WAT     H217446   2.886   6.087   4.099 -2.1998  1.4982 -1.3913
 5643WAT      O17447   1.853   3.537   2.496  0.4146  0.4312  0.3905
 5643WAT     H117448   1.913   3.463   2.498  1.4262  1.2406  0.6566
 5643WAT     H217449   1.909   3.614   2.488 -0.6392  1.1424 -0.6043
 5644WAT      O17450   2.321   4.296   0.168 -0.2668 -0.5660  0.3855
 5644WAT     H117451   2.348   4.245   0.244  0.0043  1.6402  1.8574
 5644WAT     H217452   2.399   4.345   0.143 -1.1454  0.9823  0.5924
 5645WAT      O17453   0.682   3.695   0.764 -0.7613  0.7386  0.0695
 5645WAT     H117454   0.624   3.675   0.838 -0.2014  1.2939  0.6745
 5645WAT     H217455   0.712   3.784   0.781 -1.3662  1.2281 -1.3507
 5646WAT      O17456   2.129   5.271   0.269 -0.1792 -0.3435 -0.0119
 5646WAT     H117457   2.189   5.211   0.225 -1.6497 -1.7814 -0.1248
 5646WAT     H217458   2.138   5.353   0.220  1.8728 -0.4074  0.1555
 5647WAT      O17459   2.516   5.455   1.514  0.2200 -0.6224 -0.5301
 5647WAT     H117460   2.559   5.525   1.466 -0.0516 -0.3821 -0.4289
 5647WAT     H217461   2.575   5.435   1.586 -0.5501  0.8096  0.5492
 5648WAT      O17462   2.087   5.159   5.839  0.6703  0.1058 -0.5897
 5648WAT     H117463   2.175   5.197   5.850  1.0154 -0.5754 -0.9046
 5648WAT     H217464   2.067   5.120   5.924  1.1760 -0.7431 -0.8444
 5649WAT      O17465   1.581   4.772   1.816  0.9140 -0.2382  0.1314
 5649WAT     H117466   1.621   4.859   1.812 -0.8381  0.5713 -0.3216
 5649WAT     H217467   1.654   4.712   1.796  2.1459  1.0918  0.4429
 5650WAT      O17468   1.016   4.572   4.503 -0.5435 -0.0477  0.0539
 5650WAT     H117469   1.104   4.534   4.498  1.0173  3.2736 -0.0269
 5650WAT     H217470   1.010   4.606   4.592 -0.6704  1.9605 -0.6684
 5651WAT      O17471   2.363   3.449   5.229  0.2204  0.1494 -0.3135
 5651WAT     H117472   2.369   3.534   5.184  0.5184  1.5820  2.2089
 5651WAT     H217473   2.453   3.429   5.253  0.4334 -1.9300 -2.4831
 5652WAT      O17474   3.193   5.925   4.708 -0.0537  0.1109  0.1175
 5652WAT     H117475   3.201   5.831   4.693 -0.4941  0.4496 -2.7359
 5652WAT     H217476   3.279   5.951   4.742  0.1508 -1.2443  0.6973
 5653WAT      O17477   0.536   2.733   4.550 -0.7055 -0.2687 -0.2576
 5653WAT     H117478   0.605   2.798   4.537 -0.8682 -0.3033 -1.3160
 5653WAT     H217479   0.464   2.762   4.494 -1.0376 -0.9913 -0.2166
 5654WAT      O17480   0.647   1.979   1.683 -0.3675  0.1060  0.3802
 5654WAT     H117481   0.562   1.948   1.654 -0.2560 -0.5406  0.7329
 5654WAT     H217482   0.647   2.072   1.662 -1.3577  0.2198  0.8297
 5655WAT      O17483   1.583   2.960   0.720 -0.4164 -0.0596  0.3911
 5655WAT     H117484   1.561   2.869   0.700  0.1797  0.0849 -1.0472
 5655WAT     H217485   1.599   3.000   0.635  0.5349  1.0868  1.0739
 5656WAT      O17486   0.792   5.091   4.273  0.0222 -0.3157  0.0259
 5656WAT     H117487   0.749   5.007   4.292  0.9749 -1.0959 -1.0821
 5656WAT     H217488   0.775   5.105   4.180 -1.1197  1.3527  0.4436
 5657WAT      O17489   6.608   4.187   0.456 -0.2901  0.0552 -0.3650
 5657WAT     H117490   6.611   4.253   0.525 -0.2344  0.8377 -1.0898
 5657WAT     H217491   6.697   4.155   0.448 -0.2637  0.0875 -0.1903
 5658WAT      O17492   1.593   2.708   0.064  0.3876 -0.1943 -0.2124
 5658WAT     H117493   1.677   2.687   0.106  0.7238  0.4197 -0.5601
 5658WAT     H217494   1.615   2.722  -0.028  0.2056  1.6491 -0.0215
 5659WAT      O17495   1.156   3.943   1.470 -0.3501  0.2941 -0.2075
 5659WAT     H117496   1.207   3.986   1.401  0.4666 -1.7510 -0.9545
 5659WAT     H217497   1.172   3.850   1.456 -0.2397 -0.1957  2.7132
 5660WAT      O17498   1.905   3.698   1.115 -0.3244  0.5646 -0.1744
 5660WAT     H117499   1.949   3.683   1.199  0.3298 -0.0030 -0.6110
 5660WAT     H217500   1.962   3.657   1.050 -1.5149 -0.2273 -0.7501
 5661WAT      O17501   1.148   3.175   1.137  0.0346 -0.0167 -0.0399
 5661WAT     H117502   1.240   3.194   1.118  0.2604  1.8159  2.3886
 5661WAT     H217503   1.134   3.087   1.101  3.1384 -0.9841  0.7566
 5662WAT      O17504   0.004   2.646   5.792 -0.2357  0.0143 -0.2862
 5662WAT     H117505   0.022   2.700   5.715  1.2570  2.8948  1.8535
 5662WAT     H217506   0.088   2.644   5.839 -1.0764 -1.6565  1.2615
 5663WAT      O17507   0.453   3.584   0.107  0.2695 -0.0507 -0.3639
 5663WAT     H117508   0.535   3.581   0.057  0.0032  0.3450 -0.8357
 5663WAT     H217509   0.469   3.648   0.176 -0.0679  1.0482 -1.2617
 5664WAT      O17510   1.376   2.557   0.076 -0.5417 -0.1168  1.2161
 5664WAT     H117511   1.436   2.612   0.126 -0.7698 -1.6886  3.3697
 5664WAT     H217512   1.422   2.540  -0.006  1.3395 -0.0801  2.2084
 5665WAT      O17513   1.950   3.129   0.444 -0.1574  0.2914  0.1533
 5665WAT     H117514   2.028   3.080   0.418 -1.0280 -0.2802 -1.5465
 5665WAT     H217515   1.982   3.194   0.507  1.3225 -1.2484  1.0603
 5666WAT      O17516   6.248   2.706   5.318  0.9818 -0.2274  0.2507
 5666WAT     H117517   6.313   2.672   5.256  2.7595  0.1341  1.7927
 5666WAT     H217518   6.260   2.801   5.316 -0.2960 -0.0560 -0.2200
 5667WAT      O17519   3.549   5.953   5.812  0.4367 -0.0422 -0.6938
 5667WAT     H117520   3.619   6.014   5.789 -0.5351  1.5904  0.4702
 5667WAT     H217521   3.555   5.944   5.907 -0.7411 -0.0957 -0.6074
 5668WAT      O17522   5.483   2.135   5.307  0.0105 -0.7683  0.2568
 5668WAT     H117523   5.519   2.197   5.371 -1.0387  0.0691  0.0659
 5668WAT     H217524   5.504   2.049   5.343  1.8421 -0.3209  0.3343
 5669WAT      O17525   2.325   3.581   0.602 -0.3319  0.1907 -0.5205
 5669WAT     H117526   2.414   3.600   0.634 -0.5913  1.5995 -0.5814
 5669WAT     H217527   2.328   3.488   0.578  0.9697  0.0767 -0.0246
 5670WAT      O17528   2.027   5.479   4.966  0.1034 -0.3403 -0.6884
 5670WAT     H117529   2.038   5.384   4.962 -0.5410 -0.4145 -0.8569
 5670WAT     H217530   2.116   5.514   4.960  0.3372 -0.9281 -0.7322
 5671WAT      O17531   0.261   2.196   0.385  0.5542  0.1272  0.5423
 5671WAT     H117532   0.344   2.150   0.372  0.4274 -0.4697  1.6781
 5671WAT     H217533   0.238   2.228   0.298  0.4498 -2.3298 -0.4363
 5672WAT      O17534   7.374   1.836   3.105 -0.4042 -0.0907 -0.2065
 5672WAT     H117535   7.411   1.900   3.165  1.1947 -1.1275 -0.0127
 5672WAT     H217536   7.386   1.874   3.018  0.7196 -0.1777 -0.1073
 5673WAT      O17537   5.909   4.330   0.251  0.1234  0.1536 -0.2900
 5673WAT     H117538   5.982   4.272   0.269  1.1785  1.3922 -0.4685
 5673WAT     H217539   5.943   4.418   0.265 -1.6735  0.7418  0.8183
 5674WAT      O17540   1.239   2.494   4.124 -0.5126  0.0523  0.0506
 5674WAT     H117541   1.302   2.525   4.060 -1.4196 -1.8204 -1.8762
 5674WAT     H217542   1.291   2.467   4.199  1.0236 -1.3959 -1.4656
 5675WAT      O17543   0.624   2.457   4.125  0.3925 -0.8209 -0.5742
 5675WAT     H117544   0.714   2.445   4.156  0.0129 -2.1529  0.0818
 5675WAT     H217545   0.570   2.411   4.189 -0.7879  0.1236 -0.8512
 5676WAT      O17546   6.969   1.943   5.183  0.1402 -0.1390  0.3439
 5676WAT     H117547   6.995   1.871   5.125 -1.8665 -0.6150 -0.0305
 5676WAT     H217548   6.961   1.902   5.269 -0.7621 -0.3301  0.1773
 5677WAT      O17549   6.010   2.520   1.301  0.4273  1.1668  0.1968
 5677WAT     H117550   5.922   2.558   1.301 -0.4857 -0.7812 -1.2550
 5677WAT     H217551   6.034   2.516   1.208  1.2088 -0.1411  0.4349
 5678WAT      O17552   6.588   2.240   5.055  0.5602  0.4468 -0.3388
 5678WAT     H117553   6.531   2.264   5.129  1.6816 -0.7799  0.9952
 5678WAT     H217554   6.651   2.311   5.049  1.3184 -0.0924  0.8450
 5679WAT      O17555   0.496   2.200   4.037 -0.1282 -0.4345  0.5931
 5679WAT     H117556   0.519   2.291   4.052 -1.3439 -0.3860  2.5684
 5679WAT     H217557   0.550   2.151   4.100  0.1821 -1.0406 -0.1305
 5680WAT      O17558   5.528   2.962   5.998  0.0266 -0.8500 -0.3118
 5680WAT     H117559   5.570   2.907   5.932 -0.4799 -0.6678 -0.7878
 5680WAT     H217560   5.437   2.969   5.969  0.0730  0.1906 -0.2316
 5681WAT      O17561   0.358   3.043   1.080 -0.1491 -0.0143 -0.2520
 5681WAT     H117562   0.355   2.990   1.000 -1.4985 -0.7858  0.2936
 5681WAT     H217563   0.377   2.981   1.150  0.2467  0.5367  0.1381
 5682WAT      O17564   1.160   2.354   4.664  0.1260  0.0636  0.2691
 5682WAT     H117565   1.068   2.376   4.651  0.1608  1.3192  1.7887
 5682WAT     H217566   1.159   2.265   4.701 -0.3981 -0.3150 -0.6380
 5683WAT      O17567   3.040   3.714   5.891 -0.0404  0.0232 -0.9014
 5683WAT     H117568   3.072   3.684   5.806 -1.2164 -0.0933 -1.3185
 5683WAT     H217569   3.068   3.805   5.897 -0.8655  0.3545 -1.8903
 5684WAT      O17570   4.005   2.338   5.888  0.1232 -0.2292 -0.8545
 5684WAT     H117571   4.033   2.396   5.959  2.1821 -1.9507 -0.1554
 5684WAT     H217572   4.024   2.388   5.808 -0.3768  0.9596 -0.2535
 5685WAT      O17573   2.125   4.431   5.862 -0.7026 -0.1328 -0.3408
 5685WAT     H117574   2.161   4.346   5.889 -1.2097 -0.6398 -1.1990
 5685WAT     H217575   2.196   4.472   5.813 -1.1997 -1.1054 -1.9734
 5686WAT      O17576   2.193   4.438   0.383 -0.0286 -0.4669 -0.2847
 5686WAT     H117577   2.097   4.443   0.380 -0.0069  0.9648  0.4252
 5686WAT     H217578   2.216   4.385   0.307 -1.4012 -1.3051 -0.1650
 5687WAT      O17579   1.054   2.581   0.860  0.2084 -0.4633  0.9114
 5687WAT     H117580   1.019   2.517   0.922  1.2959 -0.4766  1.5440
 5687WAT     H217581   1.017   2.664   0.887 -0.7355 -0.7183  0.4566
 5688WAT      O17582   1.045   3.001   0.141  0.1749  0.4657 -0.1863
 5688WAT     H117583   0.997   2.962   0.214 -0.3487 -0.5291 -1.0394
 5688WAT     H217584   1.027   3.095   0.147 -0.8467  0.2496  0.2468
 5689WAT      O17585   6.507   2.952   0.739 -0.7175 -0.1909 -0.0076
 5689WAT     H117586   6.563   2.984   0.669 -0.0111 -0.9195  0.2182
 5689WAT     H217587   6.495   2.859   0.721 -3.9218  0.3733 -1.4521
 5690WAT      O17588   0.433   2.004   5.351  0.5524 -0.0308  0.1407
 5690WAT     H117589   0.439   1.909   5.341  0.3154 -0.1532  1.1226
 5690WAT     H217590   0.504   2.027   5.412 -0.3095  0.2324  1.0636
 5691WAT      O17591   1.691   4.207   0.125  0.5816  0.5344  0.0277
 5691WAT     H117592   1.647   4.276   0.174  0.6715  0.9981 -0.5317
 5691WAT     H217593   1.679   4.231   0.033  2.6538  1.1135 -0.1421
 5692WAT      O17594   0.720   3.694   0.011 -0.2052  0.3318  0.1601
 5692WAT     H117595   0.742   3.787   0.004  0.1337  0.1680 -1.3332
 5692WAT     H217596   0.801   3.652   0.038  0.0823  0.2937 -0.7292
 5693WAT      O17597   1.500   3.764   0.350 -0.0338  0.2752  0.0518
 5693WAT     H117598   1.444   3.767   0.273  2.1931  0.6374 -1.6567
 5693WAT     H217599   1.559   3.838   0.341 -0.4518  1.0653  2.7906
 5694WAT      O17600   0.586   2.268   1.674  0.5676 -0.2980 -0.1430
 5694WAT     H117601   0.492   2.252   1.686  0.1208  1.3869 -1.0964
 5694WAT     H217602   0.612   2.317   1.752  0.7820 -1.1221  0.3224
 5695WAT      O17603   2.729   2.981   5.845  0.2834 -0.5428  0.0272
 5695WAT     H117604   2.764   2.943   5.926 -0.6915 -0.5238  0.4818
 5695WAT     H217605   2.665   3.046   5.875 -0.9686 -1.3717 -0.7525
 5696WAT      O17606   0.749   3.383   0.801  0.0661  0.6403  0.3997
 5696WAT     H117607   0.694   3.308   0.826 -1.3169  1.8108  0.9908
 5696WAT     H217608   0.837   3.359   0.830  0.1190 -1.6686 -1.3428
 5697WAT      O17609   7.047   1.977   3.945 -0.3833 -0.0516 -0.1688
 5697WAT     H117610   7.069   2.064   3.911 -1.1604  0.3092  0.2091
 5697WAT     H217611   7.050   1.987   4.040  0.1593 -0.6129 -0.1299
 5698WAT      O17612   2.020   2.267   5.493  0.7970  0.3140 -0.1433
 5698WAT     H117613   1.973   2.202   5.440  0.1692 -0.5025  1.3710
 5698WAT     H217614   2.011   2.349   5.443 -1.2824 -0.0546 -0.4715
 5699WAT      O17615   0.434   2.409   0.174 -0.4918 -0.7694  0.1600
 5699WAT     H117616   0.467   2.331   0.129 -0.1286 -0.9113  0.6678
 5699WAT     H217617   0.339   2.402   0.166 -0.4541 -1.1720  0.0484
 5700WAT      O17618   1.615   0.120   3.815  0.3292  0.3340 -0.2239
 5700WAT     H117619   1.602   0.120   3.720  0.0904 -2.2570 -0.2612
 5700WAT     H217620   1.526   0.128   3.850 -0.3298 -4.0948 -0.3725
 5701WAT      O17621   2.053   4.202   0.687 -0.6941 -0.1523 -0.2237
 5701WAT     H117622   2.119   4.199   0.617  1.9734 -0.2719  2.1143
 5701WAT     H217623   2.005   4.120   0.677  1.0960 -1.2167 -0.6467
 5702WAT      O17624   2.519   5.882   4.777 -0.1994  0.0126 -0.3267
 5702WAT     H117625   2.445   5.920   4.729 -0.9122 -0.3279  0.4793
 5702WAT     H217626   2.587   5.870   4.710 -1.0068 -0.0346 -1.1620
 5703WAT      O17627   0.368   0.678   4.198 -0.1872 -0.0776 -0.1264
 5703WAT     H117628   0.387   0.702   4.107  1.8001 -2.3980 -0.4123
 5703WAT     H217629   0.322   0.595   4.192 -1.6278  0.5831  1.0051
 5704WAT      O17630   1.914   4.687   5.278  0.2853 -0.5786  0.3109
 5704WAT     H117631   1.921   4.690   5.182  0.8786  0.6416  0.3771
 5704WAT     H217632   1.908   4.779   5.304 -2.3286 -0.9434  1.3019
 5705WAT      O17633   0.789   4.264   3.775 -0.2559  0.1066  0.4200
 5705WAT     H117634   0.801   4.235   3.866  0.9905 -1.1981 -0.1255
 5705WAT     H217635   0.814   4.188   3.722 -2.7240  0.1871 -1.0378
 5706WAT      O17636   1.530   4.201   0.401  0.1768 -0.1149 -0.6224
 5706WAT     H117637   1.461   4.151   0.357  0.1094  0.1578 -0.8307
 5706WAT     H217638   1.541   4.279   0.347 -1.4645  1.3493  1.0056
 5707WAT      O17639   0.300   3.801   4.816 -0.5610  0.0016  0.4693
 5707WAT     H117640   0.291   3.893   4.790  0.6828  0.1534  0.5459
 5707WAT     H217641   0.385   3.796   4.858 -0.5060 -1.2494  0.2425
 5708WAT      O17642   0.896   1.866   5.407 -0.3013  0.3266 -0.0363
 5708WAT     H117643   0.923   1.808   5.335  0.5087 -1.0428  1.2959
 5708WAT     H217644   0.973   1.919   5.425 -0.9512  1.6657 -1.0602
 5709WAT      O17645   1.241   2.513   4.951  0.0977 -0.0965 -0.0559
 5709WAT     H117646   1.309   2.453   4.921  0.2217 -0.1063  0.2421
 5709WAT     H217647   1.159   2.464   4.942  0.3607 -0.9926  1.8962
 5710WAT      O17648   2.161   1.963   5.629  0.0262 -0.6850  0.2004
 5710WAT     H117649   2.243   2.004   5.657 -0.6190  0.7520  0.0727
 5710WAT     H217650   2.093   2.019   5.665 -0.8775 -0.8580 -1.1733
 5711WAT      O17651   0.016   2.336   4.995 -0.3433 -0.4270 -0.4956
 5711WAT     H117652  -0.009   2.257   4.946 -0.6814  0.2320 -1.4169
 5711WAT     H217653   0.019   2.405   4.929  0.4241  0.2438  0.2193
 5712WAT      O17654   1.555   3.396   0.895  0.0537 -0.1629  0.2531
 5712WAT     H117655   1.487   3.451   0.857 -0.1237  1.1916  2.3788
 5712WAT     H217656   1.509   3.346   0.963  0.8035 -0.6991  0.3686
 5713WAT      O17657   6.661   2.434   4.173  0.4632  0.1956  0.7156
 5713WAT     H117658   6.703   2.449   4.257 -0.3996  0.0676  1.1813
 5713WAT     H217659   6.579   2.389   4.195  0.6778 -0.7029 -0.2609
 5714WAT      O17660   1.497   2.818   2.799  0.1312  0.3181  0.0449
 5714WAT     H117661   1.500   2.724   2.816 -1.4918  0.3562  0.6691
 5714WAT     H217662   1.418   2.848   2.843  0.6140  1.9823 -0.1680
 5715WAT      O17663   1.056   3.199   0.766  0.0331  0.4765  0.2419
 5715WAT     H117664   1.136   3.250   0.754  0.3841 -0.3025 -1.0444
 5715WAT     H217665   1.045   3.193   0.860  1.3386  0.8544  0.4459
 5716WAT      O17666   6.208   2.431   5.438  0.3912 -0.4340 -0.5377
 5716WAT     H117667   6.204   2.516   5.396 -1.6196  0.3414  1.0454
 5716WAT     H217668   6.128   2.386   5.410  0.4098 -0.9742  0.2212
 5717WAT      O17669   0.185   4.027   0.448 -0.2838 -0.1781  0.3036
 5717WAT     H117670   0.148   3.943   0.475  0.8744 -0.8816 -0.2084
 5717WAT     H217671   0.152   4.089   0.513 -0.0320 -1.2844  1.5465
 5718WAT      O17672   0.925   3.481   0.486 -0.1130 -0.4531  0.3095
 5718WAT     H117673   0.981   3.404   0.478 -0.7791 -1.1621  1.9130
 5718WAT     H217674   0.972   3.539   0.545  0.2961  0.2996 -0.7404
 5719WAT      O17675   0.535   2.663   5.566 -0.6524 -0.1537  0.4018
 5719WAT     H117676   0.509   2.755   5.561  0.0231  0.0290  0.2536
 5719WAT     H217677   0.470   2.624   5.624 -0.6652  0.5146  0.8482
 5720WAT      O17678   1.269   2.979   0.756  0.0658 -0.1740 -0.6105
 5720WAT     H117679   1.309   2.927   0.686  0.8252 -1.3108  0.6397
 5720WAT     H217680   1.315   3.063   0.752  0.8745 -0.6194 -0.7583
 5721WAT      O17681   6.335   3.152   1.113 -0.2796 -0.1190 -0.0836
 5721WAT     H117682   6.299   3.237   1.087  0.2332 -0.4353 -1.9722
 5721WAT     H217683   6.383   3.122   1.036  0.3130 -1.7229  0.8642
 5722WAT      O17684   1.827   3.642   5.690 -0.6539 -0.2706 -0.0848
 5722WAT     H117685   1.740   3.681   5.687  0.1849  1.8948  1.0996
 5722WAT     H217686   1.847   3.635   5.783  0.1107 -1.6044 -0.3166
 5723WAT      O17687   3.988   4.077   5.946 -0.4725 -0.1238 -0.2879
 5723WAT     H117688   3.975   4.136   6.021  0.0956  1.0415 -1.0690
 5723WAT     H217689   3.988   3.989   5.985 -1.0729  0.3861  0.9525
 5724WAT      O17690   1.794   3.442   1.676  0.1932 -0.1761 -0.0608
 5724WAT     H117691   1.784   3.373   1.742  1.0229  1.3107  1.7080
 5724WAT     H217692   1.738   3.513   1.707 -1.5279 -0.3808 -2.4427
 5725WAT      O17693   0.627   1.984   3.422  0.6674 -0.3038  0.5072
 5725WAT     H117694   0.695   1.925   3.390  0.7540  0.2512 -0.3518
 5725WAT     H217695   0.672   2.041   3.485  0.8196 -0.4328  0.5154
 5726WAT      O17696   5.663   0.847   2.900 -0.7625 -0.2150  0.5044
 5726WAT     H117697   5.657   0.751   2.901 -0.9495 -0.2077  0.2258
 5726WAT     H217698   5.718   0.866   2.824 -1.0460 -0.0868  0.3297
 5727WAT      O17699   1.333   3.760   0.127  0.0097  0.2187 -0.1378
 5727WAT     H117700   1.350   3.802   0.042 -1.9897  1.1974 -0.1281
 5727WAT     H217701   1.305   3.671   0.104 -0.1445  0.3540 -0.4850
 5728WAT      O17702   4.616   3.779   5.760 -0.0699  0.1164 -0.1293
 5728WAT     H117703   4.630   3.858   5.707 -0.6475  0.0149 -0.4322
 5728WAT     H217704   4.616   3.707   5.697  0.4440 -0.1314  0.1469
 5729WAT      O17705   1.064   2.417   5.794  0.0911 -0.0384  0.0567
 5729WAT     H117706   1.080   2.510   5.808 -1.2225  0.5499 -1.9040
 5729WAT     H217707   1.143   2.386   5.749 -0.6859  0.9051 -2.0865
 5730WAT      O17708   3.355   3.940   5.075  0.3745  0.3058 -0.7478
 5730WAT     H117709   3.416   3.929   5.002  0.0950 -1.9915 -0.7021
 5730WAT     H217710   3.273   3.967   5.035  0.1200 -1.3095 -1.3596
 5731WAT      O17711   2.617   1.402   4.440 -0.0102  0.1673  0.1938
 5731WAT     H117712   2.528   1.397   4.404 -0.3890  0.4167  1.0737
 5731WAT     H217713   2.674   1.381   4.365 -0.8675 -1.6766 -0.0074
 5732WAT      O17714   1.688   2.752   5.801  0.2431  0.1600 -0.1808
 5732WAT     H117715   1.654   2.841   5.806 -0.3484  0.1630 -2.7454
 5732WAT     H217716   1.783   2.762   5.798  0.3393  0.4693  2.1189
 5733WAT      O17717   1.330   4.505   1.007  0.2219  0.2773  0.0491
 5733WAT     H117718   1.372   4.559   0.940 -0.9736  0.6719 -0.4089
 5733WAT     H217719   1.253   4.469   0.964 -0.3246  0.1645  1.0832
 5734WAT      O17720   6.667   4.474   1.343  0.1672  0.0134  0.1167
 5734WAT     H117721   6.713   4.551   1.377  0.9047 -0.6839  0.7611
 5734WAT     H217722   6.644   4.424   1.422  1.9186 -1.6585 -0.3630
 5735WAT      O17723   1.349   3.256   0.247  0.3025 -0.4924  0.2021
 5735WAT     H117724   1.427   3.203   0.232 -0.4646 -1.7168  0.3452
 5735WAT     H217725   1.358   3.288   0.337  0.9806 -0.0104 -0.0330
 5736WAT      O17726   1.364   2.477   5.429 -0.2392 -0.0225  0.1896
 5736WAT     H117727   1.397   2.435   5.350 -0.4020 -1.1162  0.6707
 5736WAT     H217728   1.423   2.551   5.444  0.9641 -0.9296  0.0965
 5737WAT      O17729   7.338   2.426   0.642  0.6623 -0.2146  0.1986
 5737WAT     H117730   7.308   2.438   0.732 -0.5211 -2.0567  0.0944
 5737WAT     H217731   7.423   2.382   0.652  1.9743  2.1650  0.4104
 5738WAT      O17732   1.753   4.317   5.072 -0.1467 -0.4253  0.0458
 5738WAT     H117733   1.827   4.338   5.129 -1.6305  0.2389  1.8428
 5738WAT     H217734   1.680   4.305   5.132 -2.0566  1.3737 -1.7548
 5739WAT      O17735   0.213   2.120   5.454 -0.0023  0.0781  0.2112
 5739WAT     H117736   0.201   2.199   5.402  0.3383  0.1546  0.2479
 5739WAT     H217737   0.284   2.072   5.410 -1.4301 -1.1242 -0.9012
 5740WAT      O17738   2.257   3.670   5.524  0.8886  0.2979  0.3587
 5740WAT     H117739   2.262   3.724   5.604  0.8602 -0.4201  0.8525
 5740WAT     H217740   2.318   3.599   5.540 -0.3277 -0.7606  0.4432
 5741WAT      O17741   7.277   2.642   0.406  0.1183 -0.1015 -0.4815
 5741WAT     H117742   7.348   2.601   0.456 -1.9508 -2.1674  0.9424
 5741WAT     H217743   7.276   2.733   0.438  0.7416 -0.6090  1.0802
 5742WAT      O17744   0.080   2.612   3.805  0.0771 -0.4212 -0.0373
 5742WAT     H117745   0.120   2.535   3.764 -0.8210 -1.3440  0.7653
 5742WAT     H217746   0.051   2.581   3.891  0.0494  0.9226  0.4582
 5743WAT      O17747   0.704   3.464   2.902 -0.6445  0.2410 -0.1085
 5743WAT     H117748   0.657   3.529   2.851 -0.9312  1.0511  1.1593
 5743WAT     H217749   0.781   3.510   2.935 -0.4561 -0.2713  0.1792
 5744WAT      O17750   2.541   4.812   5.566 -0.0355  0.3282 -0.1529
 5744WAT     H117751   2.464   4.854   5.605  0.8716 -1.0764  3.5458
 5744WAT     H217752   2.611   4.877   5.575  0.1874 -0.0173  0.7140
 5745WAT      O17753   2.093   4.130   4.612 -0.3560  0.0797  0.2698
 5745WAT     H117754   2.125   4.052   4.566 -1.0923  0.1095 -0.3204
 5745WAT     H217755   1.998   4.118   4.616 -0.5753  1.3406 -0.5848
 5746WAT      O17756   1.590   3.805   2.765 -0.0085  0.6265 -1.2526
 5746WAT     H117757   1.583   3.714   2.792  0.1712  0.5192 -1.5714
 5746WAT     H217758   1.506   3.824   2.724  0.3103  0.3226 -2.0509
 5747WAT      O17759   2.964   4.852   3.896  0.0274 -0.0474  0.6952
 5747WAT     H117760   3.035   4.830   3.837 -0.1484  0.6895  0.2003
 5747WAT     H217761   2.986   4.939   3.930 -1.7257  1.2216 -1.2049
 5748WAT      O17762   2.402   2.919   4.375  0.5276  0.0734 -0.6343
 5748WAT     H117763   2.471   2.854   4.386  0.6314  0.2372 -0.2905
 5748WAT     H217764   2.448   3.000   4.354  0.3789 -0.0348 -1.4158
 5749WAT      O17765   2.256   2.625   3.240 -0.0462  0.1296 -0.2686
 5749WAT     H117766   2.172   2.587   3.213 -0.3225  0.9717 -0.6306
 5749WAT     H217767   2.246   2.719   3.223  1.1914  0.1600 -0.8941
 5750WAT      O17768   7.175   0.366   3.566 -0.0843 -0.6300 -0.7759
 5750WAT     H117769   7.107   0.360   3.633  0.2208 -2.4147 -0.5720
 5750WAT     H217770   7.139   0.315   3.493  1.2358 -2.0761 -0.4583
 5751WAT      O17771   6.070   2.630   3.155  0.1265  0.0105 -0.2093
 5751WAT     H117772   6.152   2.590   3.127  0.5526  0.2807  0.6150
 5751WAT     H217773   6.002   2.573   3.119  0.6502  0.1041 -1.3903
 5752WAT      O17774   0.828   4.057   3.272 -0.4118  0.1651 -0.7598
 5752WAT     H117775   0.822   3.974   3.319  1.6925 -0.6645 -1.8238
 5752WAT     H217776   0.885   4.111   3.326  0.3870 -0.0736 -1.3410
 5753WAT      O17777   7.310   2.146   2.097  0.8339  0.1307  0.3678
 5753WAT     H117778   7.322   2.241   2.100  1.2796  0.1125 -0.4301
 5753WAT     H217779   7.392   2.113   2.060  0.0000 -0.4005 -1.0887
 5754WAT      O17780   0.691   2.991   0.108  0.1921  0.4356 -0.1995
 5754WAT     H117781   0.730   2.909   0.077  0.8158  0.8657 -0.5685
 5754WAT     H217782   0.706   2.990   0.203 -0.4039 -0.1844 -0.0987
 5755WAT      O17783   0.770   4.336   3.098 -0.5093  0.4386  0.4135
 5755WAT     H117784   0.702   4.279   3.132 -0.6500 -0.1372 -0.8103
 5755WAT     H217785   0.846   4.317   3.153 -0.1904 -1.8494 -0.7150
 5756WAT      O17786   1.086   3.305   5.315 -0.3267  0.0857  0.5519
 5756WAT     H117787   1.003   3.336   5.349 -1.3338 -0.5732 -1.1704
 5756WAT     H217788   1.089   3.337   5.225  2.3707  2.0676  1.1990
 5757WAT      O17789   1.812   4.074   4.610  0.5336  0.1368  0.5832
 5757WAT     H117790   1.787   3.999   4.665  0.4046 -0.8624 -0.7885
 5757WAT     H217791   1.764   4.148   4.647 -1.5372 -0.9985  0.3088
 5758WAT      O17792   1.766   1.191   2.922 -0.4096  0.1321  0.0783
 5758WAT     H117793   1.754   1.284   2.942  0.5010  0.5812 -1.3370
 5758WAT     H217794   1.859   1.176   2.934 -0.5443 -0.5897  0.2349
 5759WAT      O17795   1.042   4.168   5.741  0.3545  0.0912 -0.2038
 5759WAT     H117796   1.070   4.116   5.666  0.1023  0.9508 -0.9173
 5759WAT     H217797   0.948   4.180   5.729  0.1202 -0.6435  0.8205
 5760WAT      O17798   1.559   3.277   5.304 -0.2091  0.1542 -0.1536
 5760WAT     H117799   1.606   3.351   5.342 -0.7247  0.4262 -0.0384
 5760WAT     H217800   1.570   3.207   5.367  0.6039  0.0100 -0.4399
 5761WAT      O17801   1.308   4.222   3.935 -0.5069 -0.2438 -0.3171
 5761WAT     H117802   1.252   4.241   4.011  0.6955 -0.2925  0.6077
 5761WAT     H217803   1.271   4.142   3.898 -0.2090 -1.0874  1.1365
 5762WAT      O17804   6.856   2.195   2.883  0.1085 -0.5937  0.0918
 5762WAT     H117805   6.904   2.259   2.936  0.5499  0.5537 -1.6246
 5762WAT     H217806   6.778   2.242   2.854 -1.3769 -1.9598  1.5873
 5763WAT      O17807   2.008   5.411   3.540  0.4709 -0.3669 -0.5818
 5763WAT     H117808   2.044   5.353   3.474  1.5018  1.8107 -2.0507
 5763WAT     H217809   2.081   5.469   3.564 -0.2546 -0.2017  1.4563
 5764WAT      O17810   0.644   4.058   2.927  0.5116 -0.2799 -0.0908
 5764WAT     H117811   0.581   4.014   2.984 -1.5055  2.4078 -0.0855
 5764WAT     H217812   0.631   4.151   2.944  3.1205  0.4759 -1.6073
 5765WAT      O17813   2.481   5.573   4.313 -0.0721 -0.0208 -0.0882
 5765WAT     H117814   2.513   5.631   4.381  1.0326 -1.3165  0.5414
 5765WAT     H217815   2.549   5.574   4.246  0.1140 -0.8084  0.0747
 5766WAT      O17816   2.380   4.160   3.933  0.2644 -0.1249  0.1999
 5766WAT     H117817   2.380   4.078   3.884  1.7077  0.4491 -0.8184
 5766WAT     H217818   2.302   4.207   3.902  0.6245 -0.1875 -0.8182
 5767WAT      O17819   2.817   4.119   1.341 -0.6306 -0.3071 -0.2679
 5767WAT     H117820   2.887   4.151   1.398 -1.5093  1.0312  0.1119
 5767WAT     H217821   2.805   4.028   1.367  0.0402 -0.1633  0.6048
 5768WAT      O17822   0.805   4.716   1.827  0.4112 -0.1416 -0.0711
 5768WAT     H117823   0.790   4.693   1.735  1.1478  0.6133 -0.3886
 5768WAT     H217824   0.848   4.639   1.865 -0.2758 -0.6202 -0.2415
 5769WAT      O17825   0.436   2.981   4.989  0.2442  0.1492 -0.0757
 5769WAT     H117826   0.405   3.018   4.907 -1.1970 -0.0906  0.3434
 5769WAT     H217827   0.361   2.987   5.049  0.5379 -1.7274  0.5490
 5770WAT      O17828   1.617   3.220   3.099  0.0169 -0.3714  0.1961
 5770WAT     H117829   1.678   3.293   3.100  0.8769 -1.0817  1.2040
 5770WAT     H217830   1.634   3.176   3.016  0.8606 -0.5488  0.4600
 5771WAT      O17831   1.095   4.171   4.526 -0.5570 -0.3777 -0.0346
 5771WAT     H117832   1.014   4.132   4.494 -0.0972 -1.0853 -0.3514
 5771WAT     H217833   1.114   4.124   4.607 -0.3639 -0.3328 -0.0528
 5772WAT      O17834   5.944   3.342   2.608  0.6889  0.7059 -0.1096
 5772WAT     H117835   5.958   3.396   2.686  0.5521  0.7679 -0.1266
 5772WAT     H217836   6.020   3.360   2.553  0.8616  0.5461  0.0739
 5773WAT      O17837   1.292   4.187   0.253  0.1027  0.4105 -0.1351
 5773WAT     H117838   1.228   4.258   0.256 -0.0441  0.3662 -1.6233
 5773WAT     H217839   1.337   4.199   0.169  2.1139  0.4834  0.8775
 5774WAT      O17840   1.103   4.719   4.709 -0.1962 -0.1456  0.0748
 5774WAT     H117841   1.109   4.814   4.710 -0.9524 -0.0922  0.0337
 5774WAT     H217842   1.190   4.689   4.736  0.3704  0.5361 -0.9673
 5775WAT      O17843   1.846   2.462   3.710 -0.3597  0.5263  0.5597
 5775WAT     H117844   1.930   2.418   3.722  0.4602  2.3388  1.8912
 5775WAT     H217845   1.859   2.515   3.631  0.1181  1.5503  1.3061
 5776WAT      O17846   1.105   0.839   2.281  0.0756 -0.0791  0.0383
 5776WAT     H117847   1.032   0.898   2.264  0.0630 -0.0788  0.0952
 5776WAT     H217848   1.181   0.883   2.242  0.0752 -0.0037  0.1237
 5777WAT      O17849   1.114   4.988   4.664 -0.3058  0.4846 -0.1768
 5777WAT     H117850   1.177   5.020   4.600 -0.1106  1.0727  0.2958
 5777WAT     H217851   1.075   5.067   4.701  0.3045  0.1987  1.1292
 5778WAT      O17852   1.246   3.121   5.683 -0.0015 -0.2965 -0.4325
 5778WAT     H117853   1.235   3.114   5.588 -3.4337 -1.3800 -0.0629
 5778WAT     H217854   1.268   3.032   5.711 -0.5110 -0.3068 -0.0596
 5779WAT      O17855   1.571   3.829   1.483  0.1854 -0.3420 -0.0743
 5779WAT     H117856   1.521   3.825   1.565 -0.0668  1.4201 -0.1023
 5779WAT     H217857   1.659   3.853   1.511 -0.0389  0.8426 -0.3389
 5780WAT      O17858   0.950   0.197   3.780  0.4379 -0.0652  0.1108
 5780WAT     H117859   0.954   0.252   3.702  1.4452  0.9104  0.8106
 5780WAT     H217860   0.932   0.258   3.851  2.6160 -0.4557  1.0608
 5781WAT      O17861   1.700   3.864   5.853  0.2036  0.3347 -0.1354
 5781WAT     H117862   1.606   3.868   5.872  0.2496 -0.3926  0.2539
 5781WAT     H217863   1.715   3.937   5.792 -1.1902 -1.3305 -2.6279
 5782WAT      O17864   2.275   1.493   4.637  0.3713 -0.8898  0.2169
 5782WAT     H117865   2.346   1.441   4.674  0.1180 -0.8855  0.7184
 5782WAT     H217866   2.272   1.571   4.692  0.9318 -0.2054 -0.7008
 5783WAT      O17867   2.567   5.210   4.194  0.0834  0.1385 -0.1653
 5783WAT     H117868   2.524   5.243   4.273 -0.6730 -0.3815 -0.3528
 5783WAT     H217869   2.641   5.270   4.181 -1.6727  2.2916 -0.9384
 5784WAT      O17870   0.480   0.780   2.931 -0.3392  0.2444 -0.2964
 5784WAT     H117871   0.568   0.813   2.913 -0.1161 -0.5966 -0.8062
 5784WAT     H217872   0.469   0.791   3.025  0.6399 -0.3830 -0.0860
 5785WAT      O17873   1.013   6.045   3.526 -0.1260 -0.6151 -0.0876
 5785WAT     H117874   0.940   6.007   3.477 -0.8098  0.3777  0.1196
 5785WAT     H217875   0.980   6.053   3.616  0.5730 -1.0195  0.2118
 5786WAT      O17876   0.199   4.945   2.279 -0.3092  0.0792 -0.3387
 5786WAT     H117877   0.197   5.041   2.276  0.6293  0.0966 -0.6178
 5786WAT     H217878   0.173   4.923   2.368  2.2920  0.7159  0.6668
 5787WAT      O17879   0.849   4.228   0.005  0.3351 -0.0226  1.0792
 5787WAT     H117880   0.886   4.306  -0.036 -0.7588  1.1063  2.1440
 5787WAT     H217881   0.839   4.252   0.097 -0.2518 -1.3337  1.3792
 5788WAT      O17882   4.285   3.205   4.254  0.1972  0.5221 -0.3577
 5788WAT     H117883   4.325   3.282   4.294 -0.1572  0.1750  0.6904
 5788WAT     H217884   4.259   3.150   4.328  1.0931 -0.9484 -1.0945
 5789WAT      O17885   0.672   0.107   3.620  0.2794  0.2141  0.0498
 5789WAT     H117886   0.690   0.060   3.701 -1.4903 -0.8366 -0.1112
 5789WAT     H217887   0.634   0.190   3.648  1.2994  0.6242  0.2889
 5790WAT      O17888   5.643   3.137   2.997 -0.3387 -0.3133  0.0826
 5790WAT     H117889   5.569   3.159   2.941  0.2129  2.9609  0.4427
 5790WAT     H217890   5.665   3.219   3.041  1.9299 -1.7618  1.8998
 5791WAT      O17891   2.405   4.299   5.554 -0.1035 -0.1208 -0.0486
 5791WAT     H117892   2.394   4.205   5.571  0.6999 -0.8623 -2.9554
 5791WAT     H217893   2.431   4.303   5.462  1.4563  2.8823  0.4107
 5792WAT      O17894   1.166   2.060   4.830  0.2116  0.1933  0.2548
 5792WAT     H117895   1.255   2.068   4.794  0.0024 -1.2853 -0.6988
 5792WAT     H217896   1.177   2.010   4.910  0.2558  0.1552  0.2251
 5793WAT      O17897   1.654   2.225   2.975  0.4265 -0.0205 -0.3728
 5793WAT     H117898   1.715   2.272   3.032 -1.1043  1.0598  0.4343
 5793WAT     H217899   1.652   2.136   3.009  0.0639  0.4391  0.8669
 5794WAT      O17900   1.143   2.828   3.629  0.7818 -0.1536  0.1180
 5794WAT     H117901   1.109   2.896   3.570  0.2798  0.8412  1.5180
 5794WAT     H217902   1.238   2.838   3.625  0.7241  0.3830  0.0348
 5795WAT      O17903   6.689   2.329   3.325 -0.0120 -0.5805 -0.0848
 5795WAT     H117904   6.762   2.382   3.293 -0.3983 -0.0282 -0.0545
 5795WAT     H217905   6.699   2.245   3.280  0.2283 -0.2659 -0.6206
 5796WAT      O17906   1.438   3.634   3.726  0.1558  0.2780  0.2448
 5796WAT     H117907   1.499   3.672   3.663  0.4421 -0.4547  0.0700
 5796WAT     H217908   1.481   3.554   3.757 -0.5274 -0.0330  0.4272
 5797WAT      O17909   1.968   4.995   0.030 -0.2029 -0.2306  0.1284
 5797WAT     H117910   1.918   4.979  -0.050 -0.1538  1.3711 -0.2591
 5797WAT     H217911   1.960   4.914   0.079 -0.9827 -0.9384 -1.1019
 5798WAT      O17912   0.841   1.861   2.351 -0.0124 -0.1619 -0.1522
 5798WAT     H117913   0.791   1.943   2.352  1.0631  0.5221  0.8416
 5798WAT     H217914   0.818   1.820   2.268 -1.9325  0.2871  0.1036
 5799WAT      O17915   0.437   3.829   5.287 -0.1721 -0.1253  0.1431
 5799WAT     H117916   0.494   3.775   5.343  0.7388  0.1173 -0.5274
 5799WAT     H217917   0.357   3.778   5.279  0.0248 -0.5781  0.9353
 5800WAT      O17918   5.984   2.104   5.414  0.5788  0.4365 -0.3363
 5800WAT     H117919   5.994   2.154   5.333  1.8219 -0.7311 -0.9246
 5800WAT     H217920   6.026   2.159   5.481 -0.1633  1.2483 -0.5062
 5801WAT      O17921   0.949   3.433   3.248 -0.4249 -0.8913  0.4987
 5801WAT     H117922   0.939   3.528   3.250  3.5458 -0.3038  0.5095
 5801WAT     H217923   0.964   3.412   3.155  3.0659 -0.7293  0.8953
 5802WAT      O17924   1.550   2.682   2.556  0.5026  0.0064 -0.0056
 5802WAT     H117925   1.557   2.618   2.627 -1.9622  1.2968  1.5389
 5802WAT     H217926   1.484   2.744   2.586  0.2624  1.3403 -2.9444
 5803WAT      O17927   6.744   1.005   3.504  0.4630  0.0104 -0.2912
 5803WAT     H117928   6.747   1.071   3.435 -1.9486  0.5644  0.0551
 5803WAT     H217929   6.801   1.039   3.572 -0.8956  1.9037 -0.0316
 5804WAT      O17930   0.523   1.272   2.690  0.4789 -0.3739  0.9566
 5804WAT     H117931   0.457   1.290   2.756  1.6600 -0.9061  2.3217
 5804WAT     H217932   0.485   1.307   2.609 -0.8790  0.5498  1.9391
 5805WAT      O17933   1.540   3.141   3.385  0.1035  0.1244  0.1212
 5805WAT     H117934   1.622   3.185   3.406 -0.2182 -0.0588  2.0240
 5805WAT     H217935   1.530   3.149   3.291  2.1740  0.3641 -0.1051
 5806WAT      O17936   0.547   3.643   4.546 -0.1147  0.3020  0.2024
 5806WAT     H117937   0.597   3.697   4.607 -0.5489 -0.1040  0.9201
 5806WAT     H217938   0.458   3.678   4.551 -0.1650  0.2276 -0.1595
 5807WAT      O17939   1.964   2.145   4.834  0.0988 -0.6607 -0.7978
 5807WAT     H117940   2.009   2.129   4.917 -0.5577 -1.3111 -0.5600
 5807WAT     H217941   1.968   2.062   4.787 -1.5657 -0.9948 -0.4147
 5808WAT      O17942   7.372   0.686   3.271 -0.1431  0.1291 -0.4497
 5808WAT     H117943   7.297   0.710   3.216  0.6165  0.7267 -1.2621
 5808WAT     H217944   7.414   0.614   3.223  0.1493  0.2070 -0.3117
 5809WAT      O17945   7.110   3.290   5.229 -0.0072 -0.8751  0.4860
 5809WAT     H117946   7.161   3.236   5.169  1.3805 -1.0794  1.7994
 5809WAT     H217947   7.173   3.353   5.264 -0.6916 -0.9721  1.9595
 5810WAT      O17948   0.387   2.542   3.610  0.2390 -0.0287 -0.0369
 5810WAT     H117949   0.320   2.475   3.597 -2.6140  2.5279  0.2742
 5810WAT     H217950   0.437   2.512   3.686  0.0857 -2.4611 -0.8113
 5811WAT      O17951   1.227   3.013   4.803 -0.4658 -0.1261  0.0833
 5811WAT     H117952   1.321   3.022   4.789 -0.5706 -0.6192 -1.0218
 5811WAT     H217953   1.218   2.934   4.856 -0.3425 -1.1049 -1.2981
 5812WAT      O17954   2.552   4.060   2.370  0.7156 -0.1165  0.0509
 5812WAT     H117955   2.591   4.145   2.349  1.1572 -0.1001  0.9231
 5812WAT     H217956   2.604   4.027   2.443  0.8299 -1.3375 -0.5571
 5813WAT      O17957   0.909   2.662   3.918 -0.0235 -0.1356  0.0472
 5813WAT     H117958   0.827   2.711   3.923 -0.3496 -0.7519  1.1573
 5813WAT     H217959   0.975   2.722   3.953  0.0782  0.4642 -1.1056
 5814WAT      O17960   6.821   1.858   3.483  0.3462 -0.3654 -0.3730
 5814WAT     H117961   6.866   1.941   3.468 -0.6045 -0.0392 -1.4513
 5814WAT     H217962   6.890   1.792   3.475  1.0125  0.2718  0.0036
 5815WAT      O17963   0.790   3.522   4.186 -0.3573 -0.1602 -0.1216
 5815WAT     H117964   0.866   3.520   4.243  0.0867  0.1715 -0.6931
 5815WAT     H217965   0.720   3.483   4.238  0.0568  0.0677  0.6188
 5816WAT      O17966   0.342   2.809   4.100  0.0107  0.5390  0.0387
 5816WAT     H117967   0.432   2.786   4.124  0.3793  1.2916 -0.5857
 5816WAT     H217968   0.351   2.885   4.042 -1.0470  0.8960  0.3142
 5817WAT      O17969   3.829   4.958   4.390 -0.3271 -0.1480  0.6024
 5817WAT     H117970   3.763   5.019   4.424 -1.9021 -1.2133 -0.4211
 5817WAT     H217971   3.898   5.015   4.357 -1.9833  1.1689 -0.8179
 5818WAT      O17972   5.360   1.170   4.429 -0.2583  0.1416 -0.2358
 5818WAT     H117973   5.319   1.115   4.362 -2.4301  0.1724  1.0153
 5818WAT     H217974   5.350   1.121   4.510 -1.7462  2.0737  0.8217
 5819WAT      O17975   0.172   3.563   0.014  0.2470 -0.1419  0.5220
 5819WAT     H117976   0.259   3.582   0.048  0.2248  0.2280  0.3692
 5819WAT     H217977   0.112   3.605   0.076  0.2195  1.1014 -0.3146
 5820WAT      O17978   0.802   2.702   4.384 -0.0672  0.4434 -0.1120
 5820WAT     H117979   0.828   2.793   4.394  0.7351  0.1177  0.9335
 5820WAT     H217980   0.875   2.659   4.341 -0.3360  0.2411 -0.3748
 5821WAT      O17981   2.617   3.439   2.699  0.1293  0.2166  0.0670
 5821WAT     H117982   2.656   3.423   2.613  0.3583  0.3320  0.1478
 5821WAT     H217983   2.665   3.514   2.733  1.6849 -1.2327  1.2800
 5822WAT      O17984   2.524   2.151   0.074 -0.1718  0.2435 -0.3808
 5822WAT     H117985   2.555   2.136  -0.015  1.2504 -0.0278  0.1422
 5822WAT     H217986   2.595   2.120   0.130 -0.6038  1.3680  0.8372
 5823WAT      O17987   2.262   5.642   3.284 -0.3751 -0.4111 -0.0902
 5823WAT     H117988   2.251   5.737   3.294  0.3774 -0.3791  0.5338
 5823WAT     H217989   2.274   5.629   3.190  2.6216  0.5012  0.0575
 5824WAT      O17990   0.290   3.988   3.019  0.2134  0.0946 -0.2951
 5824WAT     H117991   0.363   3.942   3.062 -1.4742 -1.2790  1.2847
 5824WAT     H217992   0.233   4.015   3.091 -1.2804  0.3542 -1.5115
 5825WAT      O17993   1.799   4.939   5.809  0.4234 -0.4546  0.0230
 5825WAT     H117994   1.763   4.995   5.740 -0.6561 -0.8459  0.2610
 5825WAT     H217995   1.784   4.850   5.779  3.6609 -0.7448 -1.1770
 5826WAT      O17996   2.223   1.612   3.396 -0.4037 -0.2174  0.0459
 5826WAT     H117997   2.165   1.639   3.326  0.3392  1.3746  0.0064
 5826WAT     H217998   2.259   1.528   3.367 -0.5239  0.1581 -1.2272
 5827WAT      O17999   2.396   0.014   4.839 -0.2898  0.2996  0.4960
 5827WAT     H118000   2.382   0.075   4.910 -1.0762 -0.2434  0.8196
 5827WAT     H218001   2.489   0.022   4.818 -0.7186  2.9986 -0.7822
 5828WAT      O18002   4.772   3.143   4.031 -0.2459  0.0102  0.1865
 5828WAT     H118003   4.796   3.105   4.115  0.5336 -1.9412 -0.8403
 5828WAT     H218004   4.853   3.140   3.979 -1.0717 -0.3663 -1.1467
 5829WAT      O18005   1.960   4.171   5.769  0.8640 -0.3632 -0.4911
 5829WAT     H118006   1.972   4.262   5.742  0.5241  0.1038  0.8550
 5829WAT     H218007   2.028   4.156   5.835  0.1421 -0.6782  0.2034
 5830WAT      O18008   1.500   3.765   5.564  0.0158 -0.3905  0.4568
 5830WAT     H118009   1.436   3.739   5.497  0.2615  0.2186 -0.0303
 5830WAT     H218010   1.447   3.793   5.638 -0.2604 -2.0355  0.9236
 5831WAT      O18011   1.524   1.617   5.248 -0.1673  0.0706  0.1433
 5831WAT     H118012   1.607   1.632   5.294 -0.6901 -1.2453  1.6286
 5831WAT     H218013   1.544   1.552   5.182  0.3339  1.0567 -0.6957
 5832WAT      O18014   0.929   0.285   3.506 -0.0160  0.0650  0.5401
 5832WAT     H118015   0.940   0.193   3.481  0.2916 -0.4960  2.5341
 5832WAT     H218016   0.909   0.330   3.425 -0.1602 -1.7696 -0.4920
 5833WAT      O18017   1.389   4.231   0.009  0.3228 -0.2557 -0.4327
 5833WAT     H118018   1.473   4.198  -0.019  0.3266 -1.5955  1.0246
 5833WAT     H218019   1.325   4.184  -0.044  0.3519 -2.3457  1.2724
 5834WAT      O18020   0.079   3.134   5.319  0.1881  0.0311  0.4632
 5834WAT     H118021   0.072   3.134   5.414  1.0779  0.0152  0.5372
 5834WAT     H218022   0.071   3.226   5.294  0.8216  0.1427  0.6373
 5835WAT      O18023   1.575   2.307   4.110 -0.0093 -0.1433 -0.1014
 5835WAT     H118024   1.656   2.317   4.060 -0.0742  0.2398 -0.1343
 5835WAT     H218025   1.603   2.277   4.196  0.0876 -1.0180 -0.4328
 5836WAT      O18026   0.876   3.884   4.186  0.3471 -0.9538 -0.5859
 5836WAT     H118027   0.802   3.844   4.231  0.0045 -2.3118 -2.2443
 5836WAT     H218028   0.949   3.822   4.201  2.1727  1.7143  3.5261
 5837WAT      O18029   1.683   4.709   5.449 -0.1424  0.1911  0.1905
 5837WAT     H118030   1.728   4.679   5.370  1.7023 -0.5369  1.4605
 5837WAT     H218031   1.722   4.795   5.467 -1.1138  0.7046 -0.0978
 5838WAT      O18032   0.516   5.291   2.783 -0.1798 -0.0506  0.3342
 5838WAT     H118033   0.443   5.351   2.776 -1.1557 -1.1507  0.7612
 5838WAT     H218034   0.592   5.347   2.802 -1.0585  1.0280  0.7492
 5839WAT      O18035   2.229   2.490   2.849 -0.0768  0.4404  0.2553
 5839WAT     H118036   2.298   2.491   2.783  0.2004  0.5530  0.5414
 5839WAT     H218037   2.148   2.505   2.800  0.0474 -0.1439 -0.1422
 5840WAT      O18038   1.058   1.754   5.183 -0.1956 -0.1223 -0.3397
 5840WAT     H118039   1.148   1.766   5.213 -0.1339 -1.4132  0.0538
 5840WAT     H218040   1.057   1.666   5.144 -1.1619  0.0873 -0.8221
 5841WAT      O18041   1.741   3.856   3.872 -0.2245 -0.2533  0.8906
 5841WAT     H118042   1.801   3.930   3.870 -0.9660  0.3502  0.5949
 5841WAT     H218043   1.677   3.875   3.803 -0.2699 -1.3039  0.6207
 5842WAT      O18044   2.789   5.586   4.960 -0.1138 -0.2755  0.6756
 5842WAT     H118045   2.878   5.588   4.924 -0.5290  0.8687 -0.3402
 5842WAT     H218046   2.802   5.594   5.055  0.8614  0.1136  0.5220
 5843WAT      O18047   1.404   1.974   3.790  0.1016  0.3839  0.1966
 5843WAT     H118048   1.326   1.961   3.845  1.1204 -0.9291  1.4074
 5843WAT     H218049   1.423   1.887   3.755  0.6159  0.8421 -0.7046
 5844WAT      O18050   2.011   4.633   5.040  0.6013  0.0470 -0.1129
 5844WAT     H118051   2.047   4.655   4.954  2.0727  1.1898  0.7745
 5844WAT     H218052   2.086   4.611   5.094  0.0622  2.2919  1.7346
 5845WAT      O18053   0.652   3.545   4.985  0.2000  0.0371 -0.2317
 5845WAT     H118054   0.576   3.491   5.009  0.2705  0.4049  0.8925
 5845WAT     H218055   0.688   3.502   4.908 -1.5927  0.2852 -1.2688
 5846WAT      O18056   7.070   4.285   4.314  0.7020 -0.3040  0.3175
 5846WAT     H118057   6.979   4.265   4.295  0.1698  1.8534  0.2903
 5846WAT     H218058   7.095   4.349   4.247  1.9988 -0.2947  0.7747
 5847WAT      O18059   1.880   3.727   3.497 -0.1059 -0.2237 -0.0554
 5847WAT     H118060   1.927   3.779   3.562  0.0876 -0.4869  0.0147
 5847WAT     H218061   1.911   3.761   3.413  0.5728 -0.7119 -0.0146
 5848WAT      O18062   4.068   1.350   4.867 -0.0226 -0.2701 -0.4951
 5848WAT     H118063   4.162   1.366   4.857  0.1824 -0.8901  0.3468
 5848WAT     H218064   4.062   1.261   4.901 -0.8160  0.3382  1.0812
 5849WAT      O18065   6.515   4.137   4.041 -0.0136  0.2167 -0.0707
 5849WAT     H118066   6.511   4.101   3.953  2.4583 -1.3509  0.3669
 5849WAT     H218067   6.523   4.232   4.029  0.3932  0.0081 -1.5107
 5850WAT      O18068   1.446   3.163   1.036 -0.3737 -0.3032 -0.4246
 5850WAT     H118069   1.505   3.172   1.112  0.3785  0.6524 -1.0887
 5850WAT     H218070   1.482   3.090   0.986  0.9645  0.9633 -1.3992
 5851WAT      O18071   2.168   4.812   4.908 -0.0616  0.4479  0.1577
 5851WAT     H118072   2.258   4.843   4.915  0.4423 -1.0215  0.6007
 5851WAT     H218073   2.116   4.878   4.954  0.9442  0.7388  0.9076
 5852WAT      O18074   1.043   0.953   3.331 -0.1428 -0.1135  0.0697
 5852WAT     H118075   1.051   1.047   3.346  0.7697  0.2441 -2.2361
 5852WAT     H218076   1.128   0.926   3.297 -0.0971 -1.9963  1.4500
 5853WAT      O18077   3.079   5.272   0.237 -0.1282  0.4280 -0.5508
 5853WAT     H118078   3.040   5.356   0.213  1.6346  1.3798 -0.3087
 5853WAT     H218079   3.037   5.249   0.319 -2.7879 -0.4877 -2.0310
 5854WAT      O18080   1.416   5.232   2.837 -0.2036  0.3663 -0.0557
 5854WAT     H118081   1.337   5.226   2.783 -1.7319  0.4538  2.0736
 5854WAT     H218082   1.432   5.141   2.865 -2.6512  0.8385  3.5937
 5855WAT      O18083   1.610   5.226   3.293  0.3869 -0.1853  0.9796
 5855WAT     H118084   1.532   5.172   3.306 -0.1865  0.5016  0.4653
 5855WAT     H218085   1.667   5.172   3.239 -0.2795 -0.1939  0.2656
 5856WAT      O18086   2.200   1.382   3.077  0.2145 -0.3025  0.9021
 5856WAT     H118087   2.261   1.347   3.013  1.8168  0.7231  1.7996
 5856WAT     H218088   2.202   1.477   3.063 -2.0371 -0.2927  0.2380
 5857WAT      O18089   1.913   5.083   2.254  0.3724 -0.4003 -0.1875
 5857WAT     H118090   1.963   5.144   2.199  1.0473 -0.1295  0.7020
 5857WAT     H218091   1.845   5.138   2.293 -1.5834 -1.0209 -2.4521
 5858WAT      O18092   6.538   2.981   5.061  0.2158  0.0404  0.1779
 5858WAT     H118093   6.573   2.902   5.021 -0.2873  0.7222 -1.6964
 5858WAT     H218094   6.611   3.017   5.112  0.3463 -1.7633  1.3510
 5859WAT      O18095   7.409   1.351   3.086 -0.0355 -0.4155  0.0417
 5859WAT     H118096   7.356   1.417   3.042 -2.0758 -1.6584  0.4814
 5859WAT     H218097   7.466   1.400   3.144 -1.8729  0.9790  0.7644
 5860WAT      O18098   7.255   3.558   1.531  0.3069 -0.2148  0.0651
 5860WAT     H118099   7.261   3.487   1.468  1.1607 -0.5958  0.5642
 5860WAT     H218100   7.166   3.593   1.520 -0.1122 -1.3337 -0.2043
 5861WAT      O18101   6.025   4.513   1.786 -0.5227 -0.0043 -0.4218
 5861WAT     H118102   6.037   4.537   1.878  0.9485  0.7547 -0.7820
 5861WAT     H218103   6.094   4.448   1.769  1.0387  1.8431 -1.6528
 5862WAT      O18104   1.457   5.674   4.520  0.0549  0.2930  0.0601
 5862WAT     H118105   1.383   5.676   4.580 -0.3484 -1.4282 -0.3469
 5862WAT     H218106   1.534   5.675   4.576 -0.3063 -0.1267  0.5709
 5863WAT      O18107   0.884   3.985   3.931  0.4518  0.0357  0.5184
 5863WAT     H118108   0.898   3.960   4.022 -0.1050  1.6039  1.0736
 5863WAT     H218109   0.834   3.913   3.893 -3.4050  1.2699  2.7373
 5864WAT      O18110   1.686   4.959   4.916  0.5828  0.3350 -0.2663
 5864WAT     H118111   1.634   4.883   4.943 -0.0624  0.8839  0.0608
 5864WAT     H218112   1.640   4.994   4.840  1.5888 -0.3404 -1.2228
 5865WAT      O18113   7.229   2.258   4.348  0.0903  0.2184 -0.7079
 5865WAT     H118114   7.215   2.318   4.421 -0.3117  0.7045 -1.1746
 5865WAT     H218115   7.322   2.235   4.353 -0.7644 -3.5662  2.8207
 5866WAT      O18116   0.878   1.225   1.732  0.0615 -0.2262  0.2465
 5866WAT     H118117   0.861   1.142   1.688 -0.6468  1.1118 -2.1739
 5866WAT     H218118   0.826   1.221   1.812 -2.0468 -1.1051 -1.0912
 5867WAT      O18119   0.452   3.966   4.181  0.1732 -0.4689 -0.3464
 5867WAT     H118120   0.389   4.026   4.220  0.5675 -1.0987  1.3477
 5867WAT     H218121   0.439   3.975   4.087 -0.0449  1.9511 -0.1255
 5868WAT      O18122   1.791   2.737   4.977 -0.3976 -0.2854  0.0037
 5868WAT     H118123   1.773   2.786   5.058 -0.8871 -1.6048  0.7356
 5868WAT     H218124   1.710   2.746   4.926 -0.3574 -0.0420 -0.0178
 5869WAT      O18125   1.529   3.442   5.640  0.1250 -0.0560  0.3347
 5869WAT     H118126   1.531   3.347   5.632 -1.4726 -0.1714  0.9265
 5869WAT     H218127   1.450   3.460   5.692  0.0601  1.6176 -0.2785
 5870WAT      O18128   6.676   2.443   2.959  0.2217 -0.0718  0.0441
 5870WAT     H118129   6.720   2.455   2.874 -0.0508  0.2381 -0.0559
 5870WAT     H218130   6.665   2.532   2.993 -0.0950 -0.1647  0.1868
 5871WAT      O18131   1.220   2.769   4.882  0.7826  0.2648 -0.2794
 5871WAT     H118132   1.154   2.756   4.814  0.4134  1.1731 -0.1132
 5871WAT     H218133   1.224   2.685   4.928  0.1061  0.0450 -0.6071
 5872WAT      O18134   6.789   2.453   5.028  0.1658  0.4356  0.5518
 5872WAT     H118135   6.804   2.420   4.940 -1.1206 -0.4238  0.6359
 5872WAT     H218136   6.873   2.492   5.053  0.9041 -0.3503 -0.5934
 5873WAT      O18137   0.892   4.239   0.311  0.1299 -0.4028  0.0152
 5873WAT     H118138   0.817   4.249   0.370  0.0672  0.5401 -0.2073
 5873WAT     H218139   0.908   4.145   0.308 -3.5983 -1.1904 -3.0736
 5874WAT      O18140   1.267   3.971   4.270  0.7682  0.0727  0.4213
 5874WAT     H118141   1.361   3.956   4.273  0.7590 -0.6659 -1.4276
 5874WAT     H218142   1.258   4.062   4.239  0.9549 -0.6283 -1.9121
 5875WAT      O18143   0.164   3.455   4.600 -0.2368  0.5680 -0.4276
 5875WAT     H118144   0.088   3.428   4.651  0.3077 -0.3901 -0.0778
 5875WAT     H218145   0.134   3.458   4.510 -0.0842 -2.4970 -0.6909
 5876WAT      O18146   2.446   3.323   5.661  0.2969  0.0325  0.1494
 5876WAT     H118147   2.417   3.361   5.744  0.1871 -0.8407  0.5246
 5876WAT     H218148   2.525   3.274   5.684  0.3197 -0.1353 -0.2821
 5877WAT      O18149   0.274   3.691   4.554 -0.2822  0.5939  0.2630
 5877WAT     H118150   0.231   3.606   4.566  1.8521 -0.4620  0.9003
 5877WAT     H218151   0.299   3.717   4.643  3.4271 -0.5750 -0.2672
 5878WAT      O18152   1.506   3.744   3.259  0.2448 -0.4908  0.3854
 5878WAT     H118153   1.583   3.731   3.203  1.3069 -1.7150  2.0336
 5878WAT     H218154   1.475   3.832   3.236  3.3205  0.8856  0.9996
 5879WAT      O18155   1.001   4.093   3.022  0.0610  0.3757  0.0324
 5879WAT     H118156   0.977   4.109   2.931  1.7188 -1.3990 -0.7854
 5879WAT     H218157   0.919   4.065   3.063 -0.0540 -2.7710 -1.9688
 5880WAT      O18158   1.528   3.156   5.613 -0.0033  0.0462  0.0324
 5880WAT     H118159   1.511   3.087   5.548  1.2404 -0.8075  0.5807
 5880WAT     H218160   1.539   3.109   5.696 -0.3138  1.0134  0.6377
 5881WAT      O18161   1.024   2.597   0.221 -0.5764 -0.3794 -0.1803
 5881WAT     H118162   0.935   2.617   0.252 -0.9908 -0.2588 -1.3847
 5881WAT     H218163   1.025   2.630   0.131  0.4409 -1.0877 -0.4399
 5882WAT      O18164   1.404   4.990   2.235  0.0069 -0.2919 -0.5994
 5882WAT     H118165   1.464   4.916   2.236 -0.6152 -0.8016 -0.2557
 5882WAT     H218166   1.353   4.979   2.155  0.2741  0.0616 -0.8200
 5883WAT      O18167   1.858   5.187   2.877 -0.4049 -0.3374  0.4588
 5883WAT     H118168   1.830   5.157   2.791 -0.4359  1.0073 -0.0065
 5883WAT     H218169   1.807   5.266   2.894  0.5419  0.1508  1.1454
 5884WAT      O18170   1.275   2.837   5.709  0.6259 -0.4324  0.2427
 5884WAT     H118171   1.348   2.796   5.661  0.8676 -1.6284  1.5592
 5884WAT     H218172   1.197   2.796   5.674  0.6247  0.2985 -0.6405
 5885WAT      O18173   2.634   3.781   3.117  0.1262  0.5412  0.1046
 5885WAT     H118174   2.607   3.764   3.207 -1.5373  1.5083 -0.1718
 5885WAT     H218175   2.677   3.867   3.121  0.7840  0.2200  0.0937
 5886WAT      O18176   2.521   3.280   2.372 -0.0386  0.0849  0.4368
 5886WAT     H118177   2.460   3.348   2.400 -1.2334 -0.4531 -0.7180
 5886WAT     H218178   2.486   3.200   2.411 -0.0675 -0.2296 -0.2210
 5887WAT      O18179   3.054   3.109   2.574 -0.3178  0.0224 -0.8318
 5887WAT     H118180   3.096   3.044   2.519 -0.4902  0.1147 -1.0764
 5887WAT     H218181   3.083   3.089   2.663  0.2906  0.1302 -1.0063
 5888WAT      O18182   0.886   4.361   4.100 -0.0826 -0.4731  0.6757
 5888WAT     H118183   0.809   4.400   4.058 -0.1328 -2.0617 -0.8654
 5888WAT     H218184   0.959   4.387   4.044  0.1640 -0.8615  0.8143
 5889WAT      O18185   0.561   3.363   0.181 -0.3040 -0.1534  0.1887
 5889WAT     H118186   0.606   3.368   0.265  3.4313  0.7080 -1.6497
 5889WAT     H218187   0.508   3.443   0.178 -1.2330 -0.6515  2.0237
 5890WAT      O18188   6.588   0.046   2.919 -0.2525 -0.7372  0.0728
 5890WAT     H118189   6.644   0.083   2.850 -0.0459 -0.0192  0.6108
 5890WAT     H218190   6.572   0.119   2.979 -0.6827 -1.2719  0.6260
 5891WAT      O18191   0.331   1.320   2.478  0.0115  0.5410 -0.3892
 5891WAT     H118192   0.236   1.323   2.473 -0.0298 -0.1635 -0.1305
 5891WAT     H218193   0.356   1.253   2.414  0.3506  0.8839 -0.6215
 5892WAT      O18194   0.436   3.522   3.058 -0.3838  0.7072  0.2512
 5892WAT     H118195   0.523   3.550   3.028  0.5911 -0.3070  1.9925
 5892WAT     H218196   0.391   3.497   2.977  1.0084  1.0484 -0.6766
 5893WAT      O18197   1.822   0.207   2.417 -0.0033  0.1062  0.0315
 5893WAT     H118198   1.893   0.154   2.454  0.5496  1.1368  0.5262
 5893WAT     H218199   1.750   0.146   2.405  1.6737 -1.5247 -2.7171
 5894WAT      O18200   6.706   2.924   3.926  0.0852 -0.0418 -0.1630
 5894WAT     H118201   6.709   2.840   3.880  1.5996 -0.1681  0.0964
 5894WAT     H218202   6.787   2.925   3.978 -0.4134  1.1410  0.6210
 5895WAT      O18203   2.022   3.975   2.917  0.3249 -0.1712  0.6590
 5895WAT     H118204   1.957   4.022   2.970 -0.7733  0.1987 -0.9605
 5895WAT     H218205   2.079   3.934   2.982  0.7473  2.5367  2.1576
 5896WAT      O18206   3.371   4.248   2.152  0.3193 -0.4975  0.1650
 5896WAT     H118207   3.293   4.252   2.096  0.7427  0.9437 -0.3646
 5896WAT     H218208   3.389   4.339   2.174  0.3778 -0.9968  2.4181
 5897WAT      O18209   1.165   3.333   4.197  0.0882 -0.3101  0.0462
 5897WAT     H118210   1.189   3.417   4.157 -2.4013  0.8184  0.6904
 5897WAT     H218211   1.234   3.316   4.261  0.6600  1.2738 -0.1012
 5898WAT      O18212   1.912   4.624   4.549  0.8173 -0.2404 -0.1820
 5898WAT     H118213   1.938   4.694   4.610 -0.3317 -1.9401  2.4312
 5898WAT     H218214   1.988   4.566   4.546 -0.0268 -1.5585  1.8959
 5899WAT      O18215   0.398   3.129   5.415 -0.0843  0.0575 -0.4293
 5899WAT     H118216   0.451   3.054   5.440  0.0091  0.2126 -0.1628
 5899WAT     H218217   0.328   3.133   5.481  0.2452  0.5528 -0.1010
 5900WAT      O18218   7.056   0.898   3.322 -0.0223  0.0658  0.0335
 5900WAT     H118219   7.107   0.872   3.246  0.8241 -1.3364  1.0207
 5900WAT     H218220   7.043   0.992   3.312 -0.6543 -0.2166 -2.2340
 5901WAT      O18221   1.424   4.638   5.893 -0.0921 -0.5381 -0.0600
 5901WAT     H118222   1.395   4.728   5.882  2.7944  0.2274 -3.1236
 5901WAT     H218223   1.414   4.621   5.987  0.3738  3.4149  0.8852
 5902WAT      O18224   1.326   2.908   0.057 -0.2082  0.4946 -0.1292
 5902WAT     H118225   1.249   2.959   0.081 -0.3251 -0.1367  0.8864
 5902WAT     H218226   1.292   2.823   0.032  0.0938  0.5075 -0.6103
 5903WAT      O18227   6.963   2.810   0.813  0.2873 -0.1284  0.0149
 5903WAT     H118228   6.947   2.903   0.831  1.9627  0.9887 -3.2333
 5903WAT     H218229   7.050   2.794   0.849 -0.3019 -0.6834  1.2175
 5904WAT      O18230   3.045   2.772   4.361 -0.0697  0.7725 -0.6763
 5904WAT     H118231   2.969   2.716   4.350  0.5314  0.0801 -1.3863
 5904WAT     H218232   3.115   2.713   4.389  0.7200  1.0455 -1.9872
 5905WAT      O18233   3.147   3.016   3.917 -0.1366  0.4377 -0.4359
 5905WAT     H118234   3.183   2.965   3.845  2.9290  1.0545  0.5041
 5905WAT     H218235   3.083   2.958   3.958  0.6522 -1.2881 -1.5091
 5906WAT      O18236   2.468   3.578   3.955 -0.3088 -0.4515 -0.0836
 5906WAT     H118237   2.516   3.615   4.029  1.4167 -0.4694 -1.1441
 5906WAT     H218238   2.493   3.486   3.953  1.2125 -0.0472 -1.8095
 5907WAT      O18239   0.772   3.377   5.198  0.9089 -0.3762 -0.2717
 5907WAT     H118240   0.746   3.436   5.127  0.7277  0.0656  0.1503
 5907WAT     H218241   0.714   3.302   5.190 -1.3485  1.0364  1.2839
 5908WAT      O18242   3.008   5.872   4.927  0.4356 -0.0796  0.2167
 5908WAT     H118243   2.985   5.779   4.922  0.8542 -0.2980  1.7598
 5908WAT     H218244   3.093   5.878   4.883  0.4727 -0.4433  0.2366
 5909WAT      O18245   2.244   3.369   4.625  0.2247 -0.0029 -0.0331
 5909WAT     H118246   2.221   3.331   4.710 -0.8708  0.1836 -0.2325
 5909WAT     H218247   2.187   3.324   4.562  0.8877 -0.0020 -0.6497
 5910WAT      O18248   1.087   4.031   5.218 -0.0195  0.2284 -0.2610
 5910WAT     H118249   1.048   3.969   5.279  1.6723  1.5951  2.4260
 5910WAT     H218250   1.174   3.995   5.200  1.8407  2.4679  2.9604
 5911WAT      O18251   6.346   0.336   3.779 -0.4361  0.0184 -0.7829
 5911WAT     H118252   6.435   0.324   3.745  0.8468  1.8956  1.5819
 5911WAT     H218253   6.334   0.264   3.841  0.2134  0.7291  0.2139
 5912WAT      O18254   1.387   3.038   4.423  0.4291 -0.0344 -0.4414
 5912WAT     H118255   1.409   3.129   4.404 -0.6667  0.4564  0.5496
 5912WAT     H218256   1.310   3.020   4.368  0.6217 -0.3565 -0.6093
 5913WAT      O18257   3.018   5.156   5.344 -0.0415 -0.3604  0.0702
 5913WAT     H118258   2.957   5.083   5.355  0.6330 -0.8419  0.6402
 5913WAT     H218259   3.004   5.211   5.422  0.1922 -0.4315  0.1640
 5914WAT      O18260   1.378   3.866   1.694  0.0098  0.0513 -0.6024
 5914WAT     H118261   1.289   3.829   1.692  0.0796 -0.2994  1.1901
 5914WAT     H218262   1.365   3.960   1.682 -0.5174 -0.0724 -1.1131
 5915WAT      O18263   0.060   1.287   2.495 -0.0553 -0.4054  0.5286
 5915WAT     H118264   0.008   1.364   2.519 -0.5456 -0.5902  0.0947
 5915WAT     H218265   0.045   1.277   2.401 -1.0536 -1.7915  0.8016
 5916WAT      O18266   0.142   1.453   3.956 -0.2484 -0.1612  0.1960
 5916WAT     H118267   0.202   1.491   3.892 -0.6113  0.2867  0.1134
 5916WAT     H218268   0.060   1.502   3.944 -0.0077  0.7240  1.7656
 5917WAT      O18269   1.069   4.388   5.944  0.0621  0.4482 -0.5581
 5917WAT     H118270   1.112   4.446   5.881 -2.0448  0.6260 -1.9162
 5917WAT     H218271   1.077   4.301   5.905  1.8211 -0.0037  0.7025
 5918WAT      O18272   1.896   4.069   5.032 -0.3198  0.7042  0.1066
 5918WAT     H118273   1.864   4.159   5.035 -1.4887  0.2920  1.0134
 5918WAT     H218274   1.829   4.019   5.078 -2.1264 -1.3845 -4.2156
 5919WAT      O18275   7.357   1.494   2.592  0.1664 -0.2894  0.3964
 5919WAT     H118276   7.396   1.581   2.607  1.4786 -1.0906  2.0261
 5919WAT     H218277   7.266   1.512   2.570  0.4687  1.5072  0.4325
 5920WAT      O18278   5.702   5.555   4.251 -0.2071 -0.6065  0.0655
 5920WAT     H118279   5.650   5.606   4.313  0.3448 -0.7410  0.6515
 5920WAT     H218280   5.732   5.479   4.301  0.6845 -0.4438 -0.2037
 5921WAT      O18281   0.186   3.487   3.769 -0.8128  0.5516 -0.2439
 5921WAT     H118282   0.099   3.447   3.772 -0.0319 -1.3538 -1.4118
 5921WAT     H218283   0.241   3.431   3.823 -0.6459  2.8821  2.1981
 5922WAT      O18284   0.400   1.836   3.684  0.3057  0.3856  0.4209
 5922WAT     H118285   0.486   1.878   3.688  0.7480 -0.3265 -0.8392
 5922WAT     H218286   0.340   1.907   3.662  0.6508  0.8022  0.8112
 5923WAT      O18287   2.541   2.467   5.670 -0.1631 -0.4401  0.2088
 5923WAT     H118288   2.475   2.522   5.628  2.2397  2.1758 -0.4279
 5923WAT     H218289   2.503   2.448   5.756 -2.1122  0.1717 -0.4445
 5924WAT      O18290   0.979   4.420   2.830 -0.3232  0.0343 -0.1756
 5924WAT     H118291   0.980   4.483   2.903  1.1343  0.1551 -0.2701
 5924WAT     H218292   1.032   4.462   2.763 -0.2056 -0.8543 -0.6417
 5925WAT      O18293   0.602   2.650   2.997 -0.1823 -0.2588  0.1333
 5925WAT     H118294   0.668   2.593   2.959  0.3781  0.1084  0.5398
 5925WAT     H218295   0.590   2.719   2.931 -1.1606 -1.0379 -0.5437
 5926WAT      O18296   6.285   2.619   4.191 -0.3817  0.2040  0.6920
 5926WAT     H118297   6.333   2.694   4.226 -2.5101  1.2752  1.4915
 5926WAT     H218298   6.348   2.547   4.192  1.4069  1.7077  0.8993
 5927WAT      O18299   0.227   3.683   2.362 -0.1034 -0.1828  0.0070
 5927WAT     H118300   0.233   3.778   2.358  1.4714  0.0854  4.3002
 5927WAT     H218301   0.136   3.664   2.342 -0.6636  2.2796 -0.0845
 5928WAT      O18302   0.850   4.764   3.873  0.0286 -0.0432 -0.2719
 5928WAT     H118303   0.847   4.684   3.821 -0.2778 -0.2176  0.0092
 5928WAT     H218304   0.792   4.747   3.947  0.9045 -0.0127  0.4382
 5929WAT      O18305   1.575   4.206   1.443  0.3026 -0.3845  0.2199
 5929WAT     H118306   1.669   4.192   1.453  0.3523 -0.4949 -0.3558
 5929WAT     H218307   1.567   4.271   1.373 -0.0387 -0.0005  0.6011
 5930WAT      O18308   1.178   4.641   3.347  0.3848  0.0056 -0.2409
 5930WAT     H118309   1.107   4.624   3.284  1.8574  1.1611 -2.3284
 5930WAT     H218310   1.132   4.666   3.427 -1.6060  0.7221 -1.5076
 5931WAT      O18311   1.883   1.933   1.922  0.1005  0.0989 -0.3142
 5931WAT     H118312   1.864   1.943   1.828 -0.7472  1.2704 -0.0323
 5931WAT     H218313   1.895   2.023   1.953  1.4048 -0.3296  0.5149
 5932WAT      O18314   0.453   2.884   1.268 -0.1289  0.1927 -0.5469
 5932WAT     H118315   0.394   2.809   1.270 -0.3733  0.2876 -2.3947
 5932WAT     H218316   0.443   2.925   1.354 -1.2436 -0.9234 -0.1156
 5933WAT      O18317   0.831   5.043   3.885  0.8318  0.3024 -0.0472
 5933WAT     H118318   0.855   4.950   3.888  1.0075  0.3605  1.7199
 5933WAT     H218319   0.736   5.043   3.870  1.0367 -0.1072 -1.4029
 5934WAT      O18320   0.693   2.094   2.315  0.5961 -0.2071  0.8203
 5934WAT     H118321   0.606   2.060   2.334  1.3169 -2.3743  0.5927
 5934WAT     H218322   0.678   2.170   2.259 -1.1623  0.1609  1.7401
 5935WAT      O18323   0.253   3.240   1.195  0.0204  0.4491  0.9049
 5935WAT     H118324   0.287   3.171   1.138  0.4933 -0.1805  1.9338
 5935WAT     H218325   0.252   3.202   1.282 -3.3620  0.4266  0.9793
 5936WAT      O18326   4.719   4.755   4.177  0.3507 -0.4400  0.0614
 5936WAT     H118327   4.813   4.769   4.173  0.3291  0.8923  2.4514
 5936WAT     H218328   4.685   4.801   4.100  1.4269  2.0261  0.9397
 5937WAT      O18329   0.519   2.152   1.209  0.6067 -0.1047 -0.1248
 5937WAT     H118330   0.509   2.244   1.186  0.5956  0.2245  1.1353
 5937WAT     H218331   0.445   2.134   1.268  0.7549 -0.8521 -0.1586
 5938WAT      O18332   2.417   4.867   3.219 -0.9865 -0.1665 -0.5020
 5938WAT     H118333   2.423   4.956   3.183 -1.0779 -0.1461 -0.4667
 5938WAT     H218334   2.397   4.811   3.145 -0.2199 -0.2556 -0.6502
 5939WAT      O18335   0.268   3.433   2.825  0.1981  0.0421 -0.0430
 5939WAT     H118336   0.266   3.415   2.731 -0.4891 -0.1545 -0.0015
 5939WAT     H218337   0.187   3.482   2.841 -0.4870 -1.2570  0.6863
 5940WAT      O18338   2.183   4.631   2.825 -0.2779 -0.0584 -0.4126
 5940WAT     H118339   2.100   4.660   2.787 -0.8451  0.1162  0.9078
 5940WAT     H218340   2.176   4.535   2.827  0.4268 -0.1856 -2.1705
 5941WAT      O18341   0.998   2.478   0.625  0.3479 -0.0975  0.3304
 5941WAT     H118342   1.006   2.524   0.709  0.7219  2.5631 -1.0822
 5941WAT     H218343   0.919   2.513   0.585  0.9873 -0.2103 -1.0852
 5942WAT      O18344   1.248   4.398   3.168  0.3760 -0.0137 -0.2581
 5942WAT     H118345   1.316   4.462   3.149  0.2799 -0.4307 -2.1920
 5942WAT     H218346   1.284   4.314   3.139 -0.6348 -0.3623 -0.5537
 5943WAT      O18347   2.816   0.253   3.957 -0.1845 -0.1733  0.2089
 5943WAT     H118348   2.751   0.185   3.945  0.5167 -0.7996 -0.1400
 5943WAT     H218349   2.845   0.243   4.048  0.1111 -0.5258  0.0793
 5944WAT      O18350   2.476   2.147   3.813 -0.3597  0.2660 -0.1380
 5944WAT     H118351   2.456   2.132   3.906  0.7348  0.9948  0.2370
 5944WAT     H218352   2.571   2.158   3.811 -0.3966  0.4250 -1.3277
 5945WAT      O18353   2.189   5.063   2.438  0.6647  0.0420 -0.2343
 5945WAT     H118354   2.129   5.130   2.472 -0.7485  0.4671 -3.2532
 5945WAT     H218355   2.146   4.980   2.459 -0.6573  0.3207 -1.6475
 5946WAT      O18356   2.021   4.163   1.920  0.2582  0.1118  0.5442
 5946WAT     H118357   1.982   4.199   1.840 -0.2711  0.2118  0.8386
 5946WAT     H218358   1.993   4.072   1.920 -0.5180  0.3407  1.0762
 5947WAT      O18359   2.186   4.269   1.359  0.3163  0.2869 -0.0704
 5947WAT     H118360   2.145   4.193   1.318  1.2931 -0.5733  0.4837
 5947WAT     H218361   2.246   4.304   1.292  0.6237 -0.0615  0.0194
 5948WAT      O18362   2.262   4.617   4.116  0.5766 -0.3020 -0.2501
 5948WAT     H118363   2.338   4.649   4.165 -1.0919  2.0283  0.9948
 5948WAT     H218364   2.253   4.679   4.044 -0.0267 -0.6931 -0.5160
 5949WAT      O18365   1.245   3.485   2.858  0.2339 -0.2106  0.3330
 5949WAT     H118366   1.213   3.403   2.820  0.1801 -0.4924  0.9758
 5949WAT     H218367   1.216   3.552   2.797  1.0310 -0.7392 -0.6622
 5950WAT      O18368   6.816   2.155   0.878 -0.1788 -0.2604 -0.4433
 5950WAT     H118369   6.747   2.165   0.813  0.3892 -2.1842 -1.4259
 5950WAT     H218370   6.769   2.145   0.961 -0.9580  0.8626 -0.7167
 5951WAT      O18371   1.550   5.121   2.538  0.3608 -0.1160 -0.3413
 5951WAT     H118372   1.488   5.049   2.529  0.5678 -0.4873  1.0402
 5951WAT     H218373   1.531   5.160   2.623  1.7275  0.0294 -0.0697
 5952WAT      O18374   0.539   5.855   2.485 -0.7021 -0.3586  0.3495
 5952WAT     H118375   0.612   5.834   2.543  0.6027  0.3563 -0.9811
 5952WAT     H218376   0.492   5.772   2.475 -0.1241 -0.8107  1.2585
 5953WAT      O18377   1.137   3.422   4.982 -0.1900  0.1914  0.3608
 5953WAT     H118378   1.227   3.419   5.013 -0.4461  0.0570  1.1237
 5953WAT     H218379   1.104   3.507   5.012  0.0109  0.7340 -0.8898
 5954WAT      O18380   7.400   3.291   2.226 -0.0198 -0.2327  0.5056
 5954WAT     H118381   7.470   3.268   2.164  0.7387 -1.8788  1.9138
 5954WAT     H218382   7.340   3.217   2.223  0.2668 -0.5503  2.0470
 5955WAT      O18383   1.343   4.488   2.385 -0.1542 -0.1214  0.4796
 5955WAT     H118384   1.360   4.405   2.342 -0.1266  0.5215 -0.8087
 5955WAT     H218385   1.422   4.540   2.367 -0.8795  0.7695 -0.2445
 5956WAT      O18386   1.248   3.711   5.437 -0.0183 -0.7032 -0.2947
 5956WAT     H118387   1.253   3.615   5.439  0.6675 -0.6948 -0.9741
 5956WAT     H218388   1.155   3.730   5.454  0.3544 -1.3224  3.2278
 5957WAT      O18389   0.448   5.798   3.652 -0.4533  0.3340 -0.2860
 5957WAT     H118390   0.352   5.803   3.646 -0.5730 -1.7584 -0.6090
 5957WAT     H218391   0.479   5.822   3.565 -0.6671  1.0029 -0.1849
 5958WAT      O18392   1.185   4.144   3.549 -0.0558 -0.5472 -0.2183
 5958WAT     H118393   1.172   4.130   3.643 -0.9901 -1.0786 -0.4134
 5958WAT     H218394   1.163   4.236   3.535  0.3785 -0.3829  0.1172
 5959WAT      O18395   0.413   2.977   1.531 -0.4652 -0.6958  0.1154
 5959WAT     H118396   0.503   2.960   1.559 -0.2498 -1.6674 -1.0907
 5959WAT     H218397   0.363   2.981   1.613  0.9001  1.6085  0.9546
 5960WAT      O18398   6.545   2.845   1.396  0.1075 -0.0873 -0.1744
 5960WAT     H118399   6.450   2.842   1.385 -0.1897  0.0550  1.8705
 5960WAT     H218400   6.572   2.927   1.354 -0.9073  0.6202  0.5084
 5961WAT      O18401   0.625   4.991   2.079  0.0580  0.5144 -0.1066
 5961WAT     H118402   0.654   5.082   2.083  2.1338 -0.1439  2.3303
 5961WAT     H218403   0.568   4.982   2.156 -0.0656 -0.2542 -0.2894
 5962WAT      O18404   1.697   5.748   4.629  0.1253 -0.2525 -0.0776
 5962WAT     H118405   1.674   5.837   4.658 -0.8621 -0.2727 -0.7512
 5962WAT     H218406   1.791   5.742   4.645 -0.0012  0.4789  1.1244
 5963WAT      O18407   2.112   3.030   1.892  0.4588  0.3896  0.1205
 5963WAT     H118408   2.066   3.012   1.975 -0.2404 -1.4666 -0.6116
 5963WAT     H218409   2.181   3.091   1.916 -2.1219  3.0679  1.3500
 5964WAT      O18410   0.486   4.261   0.941  0.2409  0.3653 -0.8164
 5964WAT     H118411   0.470   4.187   0.883 -0.7786  0.1955 -0.3425
 5964WAT     H218412   0.420   4.326   0.918  2.1654  1.8916 -2.3912
 5965WAT      O18413   2.674   4.556   3.612 -0.0140 -0.2235 -0.1489
 5965WAT     H118414   2.624   4.606   3.548 -1.6845 -0.3678  0.9999
 5965WAT     H218415   2.702   4.620   3.676 -0.5967 -0.4615  0.3547
 5966WAT      O18416   2.670   5.387   2.028 -0.0693 -0.4405  0.6857
 5966WAT     H118417   2.604   5.412   2.092  0.5998  0.4358  1.0454
 5966WAT     H218418   2.752   5.387   2.076  0.6229  1.4020 -0.3995
 5967WAT      O18419   7.239   5.193   2.973  0.6338 -0.1840  0.4743
 5967WAT     H118420   7.264   5.216   3.063 -1.2925  0.3314  0.9214
 5967WAT     H218421   7.234   5.276   2.927  1.2813 -0.4211 -0.0457
 5968WAT      O18422   2.480   5.392   1.207  0.2467  0.0383 -0.3233
 5968WAT     H118423   2.523   5.477   1.215 -1.8580  1.2910 -1.3618
 5968WAT     H218424   2.526   5.336   1.270 -0.2463  2.7672  2.7691
 5969WAT      O18425   1.820   5.054   0.699  1.1849  0.1439 -0.0824
 5969WAT     H118426   1.879   5.019   0.632  2.4678  1.6211  0.2172
 5969WAT     H218427   1.810   5.146   0.676  1.0064  0.4905  1.2839
 5970WAT      O18428   3.506   4.005   2.826 -0.4649 -0.2976 -0.6993
 5970WAT     H118429   3.490   4.001   2.921  1.2807 -0.3794 -0.3732
 5970WAT     H218430   3.577   4.068   2.817 -1.8190  1.0959 -2.1593
 5971WAT      O18431   0.928   4.746   4.230 -0.4741 -0.4220 -0.2838
 5971WAT     H118432   0.969   4.666   4.262 -1.5548 -0.2626  1.6009
 5971WAT     H218433   0.845   4.751   4.276 -1.4744  0.6264 -2.0678
 5972WAT      O18434   1.231   4.074   1.961 -0.0917 -0.6595 -0.2306
 5972WAT     H118435   1.278   3.992   1.952 -0.6195 -1.3832  2.7283
 5972WAT     H218436   1.292   4.140   1.928  0.2483 -2.1641 -2.8886
 5973WAT      O18437   1.029   4.157   1.646  0.1399 -0.2199  0.6646
 5973WAT     H118438   1.060   4.233   1.597 -0.0832 -0.0700  0.7584
 5973WAT     H218439   1.075   4.083   1.605  0.5236 -0.0141  0.7170
 5974WAT      O18440   1.142   4.637   1.746  0.1521  0.4267  0.3222
 5974WAT     H118441   1.127   4.726   1.777  0.2144  0.5837 -0.0939
 5974WAT     H218442   1.059   4.610   1.708  0.4910  0.8011 -0.7491
 5975WAT      O18443   1.231   3.075   2.026  0.5713  0.2663  0.0628
 5975WAT     H118444   1.198   3.038   2.108  0.6936 -2.2392 -0.9007
 5975WAT     H218445   1.237   3.169   2.042 -1.1678  0.0872  2.2897
 5976WAT      O18446   2.050   5.367   5.390  0.0281  0.6534  0.1733
 5976WAT     H118447   2.015   5.284   5.422  0.0806  0.1766 -0.9673
 5976WAT     H218448   1.979   5.430   5.402 -1.6322 -0.4572 -2.8740
 5977WAT      O18449   1.192   1.259   2.263 -0.2923 -0.0473 -0.2120
 5977WAT     H118450   1.170   1.229   2.351 -1.8823  1.6092  0.0230
 5977WAT     H218451   1.206   1.179   2.213 -4.0451 -1.3067  0.4115
 5978WAT      O18452   0.630   3.318   1.465  0.2858  0.3309  0.0889
 5978WAT     H118453   0.645   3.411   1.478  1.4317 -0.1476  2.8581
 5978WAT     H218454   0.627   3.281   1.553  2.0608 -2.5547 -0.8906
 5979WAT      O18455   2.007   4.446   0.838  0.3437  0.3931  0.2319
 5979WAT     H118456   1.916   4.453   0.867 -0.2474  1.6622 -1.7289
 5979WAT     H218457   2.007   4.372   0.778  0.9336 -0.4495  1.2406
 5980WAT      O18458   1.572   5.067   0.879  0.9177 -0.0813  0.0904
 5980WAT     H118459   1.564   5.154   0.840  0.4210  0.3897  1.2109
 5980WAT     H218460   1.625   5.018   0.816 -0.5004  0.4116 -1.5544
 5981WAT      O18461   1.042   4.451   3.906 -0.1463 -0.3779  0.5177
 5981WAT     H118462   1.120   4.505   3.911  0.5179 -1.2737  0.0526
 5981WAT     H218463   1.063   4.383   3.842 -0.1807 -2.4538  2.5668
 5982WAT      O18464   6.992   3.920   2.902  0.1281 -0.1380 -0.3010
 5982WAT     H118465   6.972   3.866   2.979  0.8266 -0.7537 -0.5406
 5982WAT     H218466   6.997   3.857   2.830 -1.8370  0.5753 -1.1150
 5983WAT      O18467   2.935   5.517   0.185 -0.0237  0.0533  0.4854
 5983WAT     H118468   2.845   5.546   0.200  0.2498  1.2042 -0.0395
 5983WAT     H218469   2.989   5.588   0.217  0.6531  0.2787 -1.0960
 5984WAT      O18470   2.158   4.065   3.153  0.6639 -0.7981  0.4243
 5984WAT     H118471   2.230   4.002   3.161  1.8947  0.5764  0.6405
 5984WAT     H218472   2.174   4.129   3.223 -0.5263 -0.2135  0.1953
 5985WAT      O18473   6.252   2.257   1.660  0.5045  0.8243  0.1746
 5985WAT     H118474   6.315   2.256   1.732 -0.4086  0.4961  0.9897
 5985WAT     H218475   6.237   2.165   1.639  1.3950  0.9372 -1.0166
 5986WAT      O18476   2.204   3.880   2.026  0.2503  0.6106  0.0672
 5986WAT     H118477   2.259   3.933   1.969  0.6727 -1.2468 -1.3557
 5986WAT     H218478   2.115   3.911   2.010  0.4010  0.3356 -1.3916
 5987WAT      O18479   0.079   4.162   1.622 -0.0216 -0.2072 -0.4882
 5987WAT     H118480   0.089   4.255   1.606  0.7325 -0.1645  0.1246
 5987WAT     H218481   0.030   4.157   1.705 -2.3492 -0.3994 -1.7930
 5988WAT      O18482   1.999   3.540   4.933  0.5367  0.4185 -0.6187
 5988WAT     H118483   2.052   3.485   4.990  2.4144  1.7920 -0.9632
 5988WAT     H218484   1.911   3.537   4.972  0.7626 -2.0220 -0.1200
 5989WAT      O18485   1.066   1.541   3.268 -0.9271  0.1054  0.1363
 5989WAT     H118486   1.027   1.489   3.197 -0.7166 -1.6614  1.2613
 5989WAT     H218487   1.160   1.529   3.256 -0.7113  2.4416 -1.1524
 5990WAT      O18488   1.903   2.546   1.157 -0.3224  0.3731 -0.3225
 5990WAT     H118489   1.932   2.618   1.212 -0.1008  1.2595 -1.5502
 5990WAT     H218490   1.807   2.546   1.165 -0.2366 -0.1647  0.8302
 5991WAT      O18491   2.767   2.698   2.102 -0.2999 -0.2897  0.1029
 5991WAT     H118492   2.762   2.686   2.007 -1.6633  0.6807  0.0248
 5991WAT     H218493   2.678   2.679   2.133  0.2784 -1.2500  1.2919
 5992WAT      O18494   0.729   5.755   3.638 -0.2211  0.1012  0.9129
 5992WAT     H118495   0.695   5.786   3.721  0.7176  0.2373  1.2580
 5992WAT     H218496   0.679   5.804   3.572 -0.7528  0.2128  1.3916
 5993WAT      O18497   1.698   4.078   1.109  0.0367 -0.2454 -0.1253
 5993WAT     H118498   1.697   3.984   1.126 -0.6579 -0.1771  0.2224
 5993WAT     H218499   1.607   4.102   1.094  0.1102  0.4976  0.5166
 5994WAT      O18500   6.870   2.529   3.206 -0.1117  0.2914 -0.4245
 5994WAT     H118501   6.816   2.602   3.236 -0.1266  0.0828  0.0671
 5994WAT     H218502   6.952   2.538   3.254 -0.9435 -1.3415  1.4745
 5995WAT      O18503   1.197   3.320   2.136  0.2280 -0.5165 -0.1037
 5995WAT     H118504   1.258   3.302   2.207  1.5785 -2.9860 -1.7401
 5995WAT     H218505   1.222   3.406   2.104 -0.3631  0.6285  2.2405
 5996WAT      O18506   0.665   6.122   3.905 -0.3158  0.0976 -0.1565
 5996WAT     H118507   0.596   6.058   3.922  1.1499 -1.3241  0.7537
 5996WAT     H218508   0.694   6.151   3.992 -1.1431  2.2976 -0.5443
 5997WAT      O18509   3.356   1.205   0.869 -0.3763 -0.0022  0.0642
 5997WAT     H118510   3.352   1.117   0.906 -0.8955  0.3735  0.9110
 5997WAT     H218511   3.287   1.207   0.803 -0.7494 -0.0539  0.4487
 5998WAT      O18512   0.267   0.566   3.130 -0.1567 -0.5308  0.1516
 5998WAT     H118513   0.257   0.471   3.135  1.0392 -0.6062  1.8865
 5998WAT     H218514   0.300   0.591   3.216  0.3566  1.3604 -0.5538
 5999WAT      O18515   4.760   3.086   1.355  0.0716  0.2324 -0.2051
 5999WAT     H118516   4.837   3.110   1.407 -1.2394  1.1874  1.3770
 5999WAT     H218517   4.724   3.170   1.327 -0.4107 -0.2147 -0.9599
 6000WAT      O18518   0.103   2.725   0.599  0.0742  0.0935 -0.0949
 6000WAT     H118519   0.129   2.642   0.559 -0.5728 -0.5090  0.6916
 6000WAT     H218520   0.054   2.699   0.677 -0.1715  1.2225  0.1395
 6001WAT      O18521   7.056   2.771   2.278  0.1947  0.3567 -0.2233
 6001WAT     H118522   7.015   2.686   2.262  1.1519 -0.1813  0.1072
 6001WAT     H218523   7.063   2.811   2.191 -0.0831  0.0145 -0.4045
 6002WAT      O18524   1.032   2.990   3.449  0.0237  0.0617 -0.1235
 6002WAT     H118525   0.943   2.984   3.484 -0.3756 -0.9134 -1.2471
 6002WAT     H218526   1.045   3.083   3.432 -1.4507  0.0395 -1.5787
 6003WAT      O18527   0.571   4.175   3.206 -0.2270  0.2478  0.4933
 6003WAT     H118528   0.637   4.114   3.238  1.1052  0.7844 -1.1034
 6003WAT     H218529   0.495   4.159   3.261  0.7278 -1.4709  1.3865
 6004WAT      O18530   0.782   4.858   3.014  0.4161 -0.7207  0.0561
 6004WAT     H118531   0.776   4.762   3.010  0.3687 -0.7211  0.1289
 6004WAT     H218532   0.770   4.887   2.923 -2.2615 -0.6259  0.3545
 6005WAT      O18533   0.394   3.664   2.124 -0.5089  0.0392 -0.0375
 6005WAT     H118534   0.362   3.708   2.045 -0.1324  0.3896  0.0048
 6005WAT     H218535   0.327   3.682   2.190 -1.1030 -0.7160 -0.4126
 6006WAT      O18536   2.039   5.141   4.016 -0.1137 -0.1804  0.2407
 6006WAT     H118537   1.960   5.194   4.002 -1.1959 -1.0845  2.4226
 6006WAT     H218538   2.108   5.205   4.032 -0.4848  0.6137 -1.1506
 6007WAT      O18539   2.412   3.632   1.396  0.2518 -0.6957  0.3269
 6007WAT     H118540   2.469   3.625   1.473 -0.3075  0.0928  0.8230
 6007WAT     H218541   2.367   3.716   1.406  1.4024  0.2499 -1.7227
 6008WAT      O18542   1.078   4.305   1.225 -0.1865 -0.3719 -0.3244
 6008WAT     H118543   1.174   4.312   1.219 -0.3557  1.1936 -2.1382
 6008WAT     H218544   1.046   4.344   1.144 -2.3672 -1.7721 -0.2246
 6009WAT      O18545   0.874   3.163   1.381 -0.1636  0.3294 -0.3876
 6009WAT     H118546   0.780   3.177   1.395  0.0938  1.5063  0.2746
 6009WAT     H218547   0.911   3.251   1.375  1.1638 -0.0628  1.3083
 6010WAT      O18548   1.050   3.745   1.157 -0.0954  0.0101 -0.0069
 6010WAT     H118549   0.961   3.773   1.178 -0.3706  0.5141 -1.6672
 6010WAT     H218550   1.091   3.728   1.241 -1.5641  0.4070  0.8138
 6011WAT      O18551   1.137   4.033   3.824 -0.2149  0.2715 -0.3008
 6011WAT     H118552   1.052   4.048   3.867  0.0128  0.6588  0.0273
 6011WAT     H218553   1.168   3.950   3.861 -0.5226  0.0445 -0.5435
 6012WAT      O18554   6.288   2.509   3.011  0.0553  0.1367  0.2796
 6012WAT     H118555   6.236   2.433   2.987  0.3815 -0.3395  1.0469
 6012WAT     H218556   6.364   2.472   3.057  0.5690  0.8788  0.0412
 6013WAT      O18557   0.631   4.878   4.314 -0.0284  0.5034  0.4614
 6013WAT     H118558   0.601   4.799   4.361  0.4148  0.2678  0.3552
 6013WAT     H218559   0.614   4.859   4.222  3.1970 -0.9281  0.0507
 6014WAT      O18560   3.639   5.551   0.095 -0.1084  0.5386 -0.0698
 6014WAT     H118561   3.551   5.523   0.067  0.5659 -1.3548 -0.4291
 6014WAT     H218562   3.640   5.536   0.189  0.0862 -0.2241 -0.1882
 6015WAT      O18563   6.526   5.408   1.756 -0.7406  0.1867  0.2824
 6015WAT     H118564   6.542   5.361   1.838 -0.4537 -1.6924 -0.8127
 6015WAT     H218565   6.574   5.359   1.690  0.4512  2.6486 -0.7895
 6016WAT      O18566   0.565   3.705   2.319  0.1732 -0.2359 -0.4386
 6016WAT     H118567   0.529   3.785   2.357  0.9705 -0.3026  0.4877
 6016WAT     H218568   0.506   3.685   2.246  0.4427  1.6847 -1.2640
 6017WAT      O18569   0.982   3.758   5.467  0.0821  0.5271  0.0020
 6017WAT     H118570   0.978   3.792   5.556 -1.5785  2.7645 -0.8518
 6017WAT     H218571   0.903   3.705   5.458  1.9641 -2.6921  0.8704
 6018WAT      O18572   0.958   3.318   0.989 -0.2539  0.3355 -0.2786
 6018WAT     H118573   1.033   3.284   1.039  0.6276  1.5316 -0.7281
 6018WAT     H218574   0.888   3.327   1.054  0.1633 -0.2496  0.2728
 6019WAT      O18575   0.167   4.146   2.316  0.1930 -0.2845  0.2221
 6019WAT     H118576   0.099   4.157   2.383 -0.0519 -0.6954  0.0402
 6019WAT     H218577   0.207   4.233   2.309 -1.0942  0.2883 -0.5096
 6020WAT      O18578   0.173   3.567   3.221  0.4495  0.4295  0.3579
 6020WAT     H118579   0.243   3.550   3.158 -0.2239 -0.4717 -0.1741
 6020WAT     H218580   0.177   3.493   3.282 -1.1995 -0.6529 -0.7655
 6021WAT      O18581   2.686   4.357   0.730  0.0839  0.5298 -0.2096
 6021WAT     H118582   2.746   4.348   0.804 -1.3340 -1.3113  0.8084
 6021WAT     H218583   2.624   4.424   0.757  0.7059  1.2764 -0.5915
 6022WAT      O18584   0.044   5.650   3.974 -0.1226 -0.6507  0.5070
 6022WAT     H118585   0.011   5.570   4.012  1.6337 -1.5641  0.2242
 6022WAT     H218586   0.091   5.622   3.895 -2.7255  1.0520 -1.8292
 6023WAT      O18587   1.347   3.111   3.091  0.0757  0.1486 -0.4284
 6023WAT     H118588   1.441   3.127   3.083 -0.0069  0.0988 -1.6458
 6023WAT     H218589   1.309   3.196   3.112  0.3421  0.2450 -0.3443
 6024WAT      O18590   1.393   3.992   3.209 -0.2724 -0.1234  0.6075
 6024WAT     H118591   1.395   4.071   3.262 -2.3207  0.5637 -0.2160
 6024WAT     H218592   1.355   4.021   3.125  0.4311 -1.6734 -0.2934
 6025WAT      O18593   6.563   2.524   1.598 -0.3413  0.4308 -0.5790
 6025WAT     H118594   6.601   2.612   1.586 -0.9861  1.0380  1.3468
 6025WAT     H218595   6.475   2.541   1.631 -0.0161 -0.8995  1.1268
 6026WAT      O18596   2.381   2.935   0.388 -0.3739 -0.0065  0.1517
 6026WAT     H118597   2.342   2.891   0.312  0.7696 -1.3338  0.2933
 6026WAT     H218598   2.423   2.865   0.437 -0.7142  0.9006  1.8002
 6027WAT      O18599   1.163   3.687   0.402 -0.6839 -0.5532 -0.0291
 6027WAT     H118600   1.121   3.697   0.487 -0.0776  0.4904  0.1688
 6027WAT     H218601   1.198   3.774   0.383  0.6576 -1.1860 -0.5598
 6028WAT      O18602   2.313   3.301   5.961  0.0297 -0.2840  0.7093
 6028WAT     H118603   2.278   3.338   6.042 -0.2857  0.7045  0.1339
 6028WAT     H218604   2.237   3.262   5.917  0.5377 -2.8304  1.8849
 6029WAT      O18605   2.158   2.925   1.631 -0.7398 -0.0070 -0.4978
 6029WAT     H118606   2.160   2.965   1.718 -1.7077  1.9674 -1.3208
 6029WAT     H218607   2.245   2.940   1.595 -0.9609  0.9982 -0.6259
 6030WAT      O18608   7.224   3.934   1.811  0.1084 -0.1677  0.2946
 6030WAT     H118609   7.196   3.858   1.862  0.4582 -0.2342  0.3928
 6030WAT     H218610   7.292   3.901   1.753  1.3998  0.3759  1.4572
 6031WAT      O18611   0.884   3.687   3.846  0.1524 -0.0240 -0.1396
 6031WAT     H118612   0.975   3.702   3.819  1.4866 -1.3208  3.2322
 6031WAT     H218613   0.875   3.592   3.850 -1.4196  0.0836 -0.4643
 6032WAT      O18614   2.345   5.293   3.311  0.4612 -0.2007 -0.1716
 6032WAT     H118615   2.270   5.239   3.338 -0.1301  0.7782  0.2014
 6032WAT     H218616   2.337   5.372   3.364  1.8471 -0.1376 -0.0364
 6033WAT      O18617   6.147   0.468   2.305  0.5547 -0.0179 -0.1071
 6033WAT     H118618   6.082   0.509   2.362  0.8993 -0.3848  0.5520
 6033WAT     H218619   6.107   0.385   2.278  1.0689 -0.6497  0.9834
 6034WAT      O18620   1.101   4.796   2.529 -0.0591  0.0215 -0.1175
 6034WAT     H118621   1.082   4.702   2.538 -0.0417  0.0237 -0.0596
 6034WAT     H218622   1.065   4.835   2.607 -0.0022  0.0541 -0.1075
 6035WAT      O18623   0.220   3.480   3.468  0.6619 -0.3504 -0.2442
 6035WAT     H118624   0.242   3.504   3.558 -1.1492  0.5404 -0.0040
 6035WAT     H218625   0.168   3.400   3.476  1.2118 -0.7480 -0.5775
 6036WAT      O18626   7.033   5.084   2.776 -0.0266  0.2488 -0.6830
 6036WAT     H118627   7.115   5.113   2.815  0.1093  0.2417 -0.9641
 6036WAT     H218628   6.967   5.142   2.814  0.0854  0.1606 -0.3459
 6037WAT      O18629   2.449   4.810   3.816 -0.7605  0.1769 -0.2690
 6037WAT     H118630   2.412   4.876   3.876 -1.5752  0.7641 -1.3665
 6037WAT     H218631   2.467   4.859   3.736  2.7389 -0.0164  0.2532
 6038WAT      O18632   0.162   0.844   1.841 -0.0353  0.4434  0.4379
 6038WAT     H118633   0.211   0.833   1.760 -0.3259  1.5295  0.0949
 6038WAT     H218634   0.129   0.757   1.862 -1.7807  0.4757 -1.7987
 6039WAT      O18635   6.396   2.481   2.083  0.0464 -0.2581  0.3248
 6039WAT     H118636   6.386   2.454   1.992 -1.0321  0.9100  0.0717
 6039WAT     H218637   6.312   2.459   2.125 -0.0682  0.6946  0.6228
 6040WAT      O18638   0.981   1.058   1.283 -0.2265 -0.2367  0.1249
 6040WAT     H118639   0.944   1.056   1.195 -0.6191  0.6421  0.2566
 6040WAT     H218640   1.042   1.132   1.282 -0.2343 -0.2190  0.5883
 6041WAT      O18641   0.534   4.205   2.027  0.2260 -0.3343 -0.0009
 6041WAT     H118642   0.523   4.208   2.122 -1.0325  0.4300 -0.1506
 6041WAT     H218643   0.551   4.296   2.002 -0.2449 -0.3982 -0.5851
 6042WAT      O18644   0.905   4.549   1.626  0.3828 -0.6331 -0.6502
 6042WAT     H118645   0.971   4.486   1.594  0.6799 -0.4952 -0.3156
 6042WAT     H218646   0.822   4.502   1.617  0.3420 -0.2678 -2.4860
 6043WAT      O18647   6.524   5.723   2.446  0.0278  0.0364  0.2385
 6043WAT     H118648   6.434   5.701   2.470 -0.3883  1.1360 -0.2446
 6043WAT     H218649   6.547   5.796   2.505  0.7664 -0.5274  0.6643
 6044WAT      O18650   7.381   2.428   2.119  0.5727  0.1916 -0.0025
 6044WAT     H118651   7.399   2.487   2.192  1.4205  1.7275 -1.4085
 6044WAT     H218652   7.305   2.466   2.075  1.8368  0.9740 -1.6149
 6045WAT      O18653   7.015   4.904   2.270 -0.7171  0.4520 -0.7444
 6045WAT     H118654   6.973   4.818   2.264  0.3026 -0.0067 -1.5492
 6045WAT     H218655   6.970   4.947   2.343 -0.8833 -0.9664  0.0294
 6046WAT      O18656   0.344   1.551   1.574 -0.1277 -0.0606  0.1597
 6046WAT     H118657   0.283   1.518   1.640 -0.3827 -0.4855 -0.2848
 6046WAT     H218658   0.411   1.483   1.567  1.3501  1.1232  1.8559
 6047WAT      O18659   1.511   5.350   3.607  0.5264  0.0829 -0.0018
 6047WAT     H118660   1.600   5.330   3.638  0.3764  0.7426  0.8857
 6047WAT     H218661   1.486   5.428   3.656 -1.9643 -2.0854  2.5844
 6048WAT      O18662   1.844   3.878   4.834 -0.0033 -0.3812 -0.2461
 6048WAT     H118663   1.871   3.947   4.895 -0.6474 -0.0957 -0.2682
 6048WAT     H218664   1.925   3.832   4.811  0.2248 -0.7071  1.0873
 6049WAT      O18665   0.787   3.856   3.441  0.0722 -0.0796 -0.3800
 6049WAT     H118666   0.847   3.882   3.511  1.6546  2.1287 -2.3796
 6049WAT     H218667   0.750   3.773   3.471  1.4340  0.2345  2.5603
 6050WAT      O18668   0.309   3.423   2.204  0.0787  0.9848 -0.1041
 6050WAT     H118669   0.341   3.493   2.148 -0.3946  0.6089 -0.8749
 6050WAT     H218670   0.353   3.436   2.288  1.2434  1.2247 -0.7317
 6051WAT      O18671   0.438   3.029   3.282 -0.9591 -0.0445 -0.9151
 6051WAT     H118672   0.438   2.941   3.244  1.5607 -0.0759 -1.0140
 6051WAT     H218673   0.475   3.085   3.214  0.3023  0.5193  0.1895
 6052WAT      O18674   2.278   3.886   4.594  0.4273  0.1597 -0.0111
 6052WAT     H118675   2.309   3.884   4.685 -1.7087  1.9717  0.8234
 6052WAT     H218676   2.263   3.793   4.573 -0.2716 -0.2359  1.9559
 6053WAT      O18677   3.031   3.558   2.062  0.1447 -0.2742  0.2741
 6053WAT     H118678   2.980   3.513   1.994  0.6579  1.1286 -1.0935
 6053WAT     H218679   3.081   3.488   2.104 -0.9122 -1.3129 -0.1242
 6054WAT      O18680   2.008   2.485   1.676  0.0212 -0.0576 -0.0702
 6054WAT     H118681   1.985   2.429   1.602  0.4133  0.6088 -0.7126
 6054WAT     H218682   2.061   2.555   1.637 -0.0741  0.5026  0.7883
 6055WAT      O18683   0.453   3.842   3.839 -0.3825  0.1415 -0.4808
 6055WAT     H118684   0.379   3.813   3.891 -0.9886  0.1299 -1.3173
 6055WAT     H218685   0.526   3.788   3.868 -0.8322 -0.2346 -0.0394
 6056WAT      O18686   6.480   2.300   4.550  0.2085 -0.6016  0.3988
 6056WAT     H118687   6.544   2.277   4.483 -0.2759  0.8673 -0.6238
 6056WAT     H218688   6.430   2.220   4.564  0.9697 -1.2071 -0.2486
 6057WAT      O18689   2.391   4.148   3.386 -0.3470  0.4197  0.5007
 6057WAT     H118690   2.351   4.141   3.473 -0.0608  0.5257  0.6419
 6057WAT     H218691   2.342   4.219   3.344  0.4404  1.3353  1.0918
 6058WAT      O18692   2.469   3.265   1.551 -0.4315  0.2153  0.1938
 6058WAT     H118693   2.419   3.344   1.574 -1.6009 -0.3076 -0.4648
 6058WAT     H218694   2.486   3.275   1.457  0.5699  0.2965  0.3730
 6059WAT      O18695   1.714   2.562   3.931  0.1822  0.3185  0.3790
 6059WAT     H118696   1.751   2.547   3.844 -0.5782  0.8819 -0.0615
 6059WAT     H218697   1.784   2.604   3.980  1.3949 -2.0078  0.7712
 6060WAT      O18698   0.513   5.561   3.238 -0.1794 -0.1206 -0.0157
 6060WAT     H118699   0.491   5.512   3.158 -1.1599 -0.0742  0.2147
 6060WAT     H218700   0.606   5.542   3.252 -0.5225 -1.8979  0.0451
 6061WAT      O18701   7.361   3.436   1.058 -0.9851 -0.3712 -0.0362
 6061WAT     H118702   7.357   3.399   0.970  1.1649  0.1784 -0.4354
 6061WAT     H218703   7.325   3.524   1.049  0.3438  0.1317 -0.6865
 6062WAT      O18704   0.729   4.802   3.579 -0.4270  0.2939 -0.3997
 6062WAT     H118705   0.777   4.878   3.613  0.5708 -0.5755  0.1932
 6062WAT     H218706   0.678   4.770   3.653 -0.8936  0.4250 -0.6641
 6063WAT      O18707   1.211   5.124   3.333  0.0910 -0.0359  0.7267
 6063WAT     H118708   1.302   5.097   3.318 -0.8248 -3.4023  0.2792
 6063WAT     H218709   1.183   5.072   3.408 -0.6894  3.2138  2.8572
 6064WAT      O18710   1.351   4.501   0.111 -0.0990 -0.5571  0.3451
 6064WAT     H118711   1.265   4.498   0.153 -1.2391 -0.3584 -1.8682
 6064WAT     H218712   1.359   4.417   0.066 -0.2166  0.3266 -1.4109
 6065WAT      O18713   1.184   5.869   3.281 -0.5656  0.2481  0.3382
 6065WAT     H118714   1.226   5.784   3.266 -1.6215 -0.4361  1.1125
 6065WAT     H218715   1.092   5.848   3.297 -1.0861  1.6490 -0.6015
 6066WAT      O18716   1.572   3.833   1.894  0.5062 -0.2883  0.3180
 6066WAT     H118717   1.595   3.741   1.900 -0.7055 -0.5472  1.2521
 6066WAT     H218718   1.524   3.841   1.811  0.5307 -0.5213  0.2834
 6067WAT      O18719   3.922   4.425   1.000 -0.5025 -0.2420 -0.4166
 6067WAT     H118720   3.968   4.497   1.044  1.1785 -1.4299 -0.1033
 6067WAT     H218721   3.836   4.422   1.041  0.4573 -0.3172  1.7245
 6068WAT      O18722   3.062   3.343   2.368  0.2476  0.5041 -0.0005
 6068WAT     H118723   3.049   3.263   2.317  0.8397  0.1117  0.4599
 6068WAT     H218724   3.047   3.317   2.459  0.6722  0.8604  0.1755
 6069WAT      O18725   2.017   3.773   2.427  0.8073  0.3217 -0.5894
 6069WAT     H118726   2.066   3.803   2.350  0.6098  3.1555  0.2941
 6069WAT     H218727   2.083   3.771   2.497  1.0934 -2.6925 -0.8154
 6070WAT      O18728   7.370   2.125   5.580 -0.0258  0.2755  0.4918
 6070WAT     H118729   7.460   2.095   5.562  0.0022 -0.4495  1.7193
 6070WAT     H218730   7.324   2.112   5.497  0.7880 -0.1807  0.0928
 6071WAT      O18731   0.749   2.153   3.186  0.2261  0.2935  0.7495
 6071WAT     H118732   0.691   2.153   3.263  1.5957 -1.7408  1.8864
 6071WAT     H218733   0.695   2.115   3.116 -0.3025 -0.1819  1.3948
 6072WAT      O18734   2.418   3.424   2.094  0.0942 -0.0808  1.0403
 6072WAT     H118735   2.431   3.519   2.086 -0.9304  0.0081  0.2350
 6072WAT     H218736   2.461   3.401   2.177  3.8619  0.4214 -0.5656
 6073WAT      O18737   2.157   4.728   3.881 -0.1782  0.1252 -0.4007
 6073WAT     H118738   2.110   4.802   3.842  1.7468  2.1388  0.8261
 6073WAT     H218739   2.249   4.746   3.863  0.3237 -2.7244 -1.1887
 6074WAT      O18740   1.763   3.028   2.487  0.0605  0.5535  0.4738
 6074WAT     H118741   1.842   3.025   2.541  0.1580  0.5270  0.3327
 6074WAT     H218742   1.752   3.121   2.466 -0.0833  0.5857  0.6921
 6075WAT      O18743   7.388   4.242   2.106 -0.3475  0.2058  0.0256
 6075WAT     H118744   7.361   4.184   2.178 -1.1543 -1.0984 -1.2828
 6075WAT     H218745   7.480   4.259   2.123 -0.5913  0.1682  1.5307
 6076WAT      O18746   1.899   1.224   2.513 -0.5365 -0.0813  0.2972
 6076WAT     H118747   1.890   1.131   2.532 -0.4621 -0.0301  0.5873
 6076WAT     H218748   1.901   1.266   2.599 -1.3423  0.2601  0.1554
 6077WAT      O18749   5.592   2.895   0.544 -0.2220 -0.2483 -0.2997
 6077WAT     H118750   5.631   2.829   0.602 -0.5077 -0.3165 -0.1850
 6077WAT     H218751   5.666   2.948   0.516 -0.0020 -0.5538 -0.3110
 6078WAT      O18752   5.474   2.154   0.345  0.2263 -0.1006 -0.1945
 6078WAT     H118753   5.565   2.183   0.345  0.4851 -0.8780  0.3653
 6078WAT     H218754   5.469   2.089   0.275 -0.2620  0.9945 -1.2002
 6079WAT      O18755   0.360   3.862   1.366  0.4247 -0.2368  0.4935
 6079WAT     H118756   0.308   3.800   1.418 -0.2500 -0.1845 -0.0959
 6079WAT     H218757   0.384   3.931   1.428  0.7799 -0.8422  1.0443
 6080WAT      O18758   6.137   3.376   0.388 -0.4376  0.3863 -0.4647
 6080WAT     H118759   6.160   3.292   0.348 -1.6919  0.1884 -0.8061
 6080WAT     H218760   6.043   3.383   0.375 -0.5244  1.3153  0.5989
 6081WAT      O18761   1.383   2.114   3.112  0.3318  0.1111 -0.6891
 6081WAT     H118762   1.335   2.061   3.176 -1.7486  2.0224 -0.5597
 6081WAT     H218763   1.333   2.106   3.031  0.9733  0.4944 -1.1360
 6082WAT      O18764   0.429   2.767   0.381  0.4197  0.3419 -0.2703
 6082WAT     H118765   0.427   2.675   0.407 -1.4481  0.6922  0.9867
 6082WAT     H218766   0.435   2.764   0.285  0.5090 -1.0844 -0.2432
 6083WAT      O18767   1.237   3.005   2.636  0.5170  0.1905 -0.3022
 6083WAT     H118768   1.233   2.920   2.592 -2.1851 -0.6582  1.3242
 6083WAT     H218769   1.245   2.983   2.729 -1.9051  1.5467  0.3227
 6084WAT      O18770   1.465   4.128   1.678  0.2856  0.1039 -0.1066
 6084WAT     H118771   1.410   4.205   1.682 -0.3842 -0.3982  0.4671
 6084WAT     H218772   1.513   4.137   1.595 -1.3339  0.0829 -1.0777
 6085WAT      O18773   0.882   4.505   2.004  0.1449 -0.1087 -0.4730
 6085WAT     H118774   0.924   4.420   2.011  0.2720 -0.0962 -1.0409
 6085WAT     H218775   0.923   4.557   2.073  0.7662 -0.2242 -0.7451
 6086WAT      O18776   1.271   4.101   2.987  0.1988  0.2138  0.1542
 6086WAT     H118777   1.309   4.146   2.912 -0.2574  0.0634 -0.1693
 6086WAT     H218778   1.176   4.111   2.976  0.0011 -1.8259 -0.5821
 6087WAT      O18779   1.587   4.908   3.458  0.3013 -0.0071 -0.2175
 6087WAT     H118780   1.557   4.817   3.456  2.2797 -0.7801  1.8211
 6087WAT     H218781   1.546   4.945   3.536  0.3080  0.5918 -0.4881
 6088WAT      O18782   6.639   2.437   2.243  0.1264 -0.3427 -0.0223
 6088WAT     H118783   6.587   2.445   2.163 -0.5895 -3.2961  0.0581
 6088WAT     H218784   6.581   2.469   2.312 -0.4907 -0.8488 -0.2972
 6089WAT      O18785   1.005   2.594   1.865 -0.5038  0.2987  0.5519
 6089WAT     H118786   1.030   2.685   1.884  1.7806 -0.1803  0.0981
 6089WAT     H218787   0.945   2.601   1.791 -0.6908  1.4505  0.7856
 6090WAT      O18788   1.458   4.666   3.398 -0.6325 -0.7710  0.1141
 6090WAT     H118789   1.364   4.651   3.408 -0.5591 -1.7393 -0.5384
 6090WAT     H218790   1.470   4.690   3.307 -0.3672  0.4531  0.4547
 6091WAT      O18791   1.016   3.067   2.265  0.1540 -0.1876  0.0575
 6091WAT     H118792   1.107   3.090   2.285  0.3407 -0.2459 -0.7042
 6091WAT     H218793   0.981   3.144   2.220 -0.3699  0.0806  0.8933
 6092WAT      O18794   0.360   0.655   3.378  0.1247  0.2646  1.0098
 6092WAT     H118795   0.386   0.712   3.306  1.3645 -2.5812 -0.9881
 6092WAT     H218796   0.435   0.656   3.437  0.8313 -0.4759  0.1582
 6093WAT      O18797   2.897   1.588   2.891 -0.5009 -0.0821 -0.4703
 6093WAT     H118798   2.934   1.504   2.921 -2.2555 -1.1100 -1.0572
 6093WAT     H218799   2.951   1.654   2.934  1.1907 -1.5003 -0.2930
 6094WAT      O18800   0.600   1.463   3.899  0.6590  0.1543  0.3466
 6094WAT     H118801   0.605   1.371   3.876 -2.2512 -0.1657  0.5725
 6094WAT     H218802   0.561   1.505   3.822  1.3960  1.1107  0.4696
 6095WAT      O18803   2.776   0.273   4.577 -0.4118  0.1326 -0.1826
 6095WAT     H118804   2.724   0.301   4.502 -0.8988 -1.5849 -0.5265
 6095WAT     H218805   2.828   0.350   4.600 -1.1424  1.0626 -1.5118
 6096WAT      O18806   0.619   4.471   1.965  0.6524 -0.1495  0.3998
 6096WAT     H118807   0.712   4.486   1.981  0.5980  1.2575 -0.4018
 6096WAT     H218808   0.575   4.546   2.005 -0.0188 -0.1451 -0.3126
 6097WAT      O18809   0.184   3.001   1.397  0.1762 -0.1699 -0.0711
 6097WAT     H118810   0.258   3.015   1.456 -0.8479  0.4023  1.1217
 6097WAT     H218811   0.210   2.926   1.344  1.6615  0.0978  0.2258
 6098WAT      O18812   0.602   5.759   2.211 -0.2012 -0.0913  0.1063
 6098WAT     H118813   0.597   5.821   2.282 -3.6587  0.3187 -0.3598
 6098WAT     H218814   0.629   5.811   2.135  0.8291 -0.0111  0.5096
 6099WAT      O18815   1.711   3.277   2.400  0.2235 -0.0948  0.3789
 6099WAT     H118816   1.675   3.343   2.460 -0.2524  1.5584 -1.5893
 6099WAT     H218817   1.651   3.277   2.326  1.8409 -0.5732 -0.9936
 6100WAT      O18818   2.308   5.306   5.062 -0.2304 -0.2498 -0.4154
 6100WAT     H118819   2.282   5.217   5.086  0.0925 -0.6487 -1.5003
 6100WAT     H218820   2.401   5.300   5.044 -0.1400  0.3864 -0.2040
 6101WAT      O18821   1.739   3.690   3.102  0.2874 -0.0994  0.0597
 6101WAT     H118822   1.813   3.736   3.141 -0.4464  0.9358  0.2560
 6101WAT     H218823   1.746   3.708   3.008 -1.0410  2.0162  0.3196
 6102WAT      O18824   0.551   2.908   2.282 -0.4515  0.0460 -0.0317
 6102WAT     H118825   0.497   2.856   2.342 -0.7716 -0.5413 -0.8145
 6102WAT     H218826   0.531   2.873   2.195  1.5561 -0.5097 -0.3146
 6103WAT      O18827   1.279   0.970   1.871 -0.1519 -0.0114 -0.1574
 6103WAT     H118828   1.326   1.042   1.829 -2.1581 -0.4759 -3.5623
 6103WAT     H218829   1.322   0.891   1.840  0.2604 -0.3955  1.2856
 6104WAT      O18830   1.014   3.146   3.140 -0.0470  0.1444  0.0517
 6104WAT     H118831   0.988   3.215   3.079  1.4383  0.6677 -0.0155
 6104WAT     H218832   1.106   3.131   3.121  0.3415  0.0340  1.8909
 6105WAT      O18833   0.725   2.270   5.583 -0.5346 -0.2367 -0.0724
 6105WAT     H118834   0.743   2.357   5.545  0.6584 -0.9754 -1.3012
 6105WAT     H218835   0.764   2.275   5.671 -3.4479  1.5396  1.2800
 6106WAT      O18836   0.756   3.891   2.755  0.4321 -0.1068  0.0155
 6106WAT     H118837   0.848   3.865   2.768  0.7233 -0.0646 -1.7042
 6106WAT     H218838   0.736   3.945   2.831  1.7914 -0.2576  0.5167
 6107WAT      O18839   2.171   4.644   1.308  0.2670 -0.6649 -0.0893
 6107WAT     H118840   2.087   4.673   1.274  0.4084  1.2290  1.0500
 6107WAT     H218841   2.183   4.556   1.271 -1.4669 -0.3565 -1.5054
 6108WAT      O18842   0.655   4.601   3.049  1.0325 -0.2483 -0.1618
 6108WAT     H118843   0.686   4.614   3.138 -0.1661 -0.6418  0.3379
 6108WAT     H218844   0.663   4.507   3.033 -1.0050 -0.5916  0.4644
 6109WAT      O18845   3.151   4.032   0.713  0.6368  0.4836 -0.2782
 6109WAT     H118846   3.147   4.123   0.744 -1.7534  0.7148 -1.0481
 6109WAT     H218847   3.060   4.009   0.694  1.1355 -2.1802  0.1142
 6110WAT      O18848   0.100   3.870   2.854 -0.0327 -0.4563  0.1721
 6110WAT     H118849   0.082   3.960   2.826 -3.1863  0.0131  3.1179
 6110WAT     H218850   0.179   3.877   2.907 -0.7137  0.7790  1.0703
 6111WAT      O18851   2.185   2.422   0.618 -0.0160  0.1338  0.4307
 6111WAT     H118852   2.098   2.435   0.578 -0.0101  1.1010  0.7265
 6111WAT     H218853   2.215   2.339   0.580 -0.2902  0.6909 -1.0933
 6112WAT      O18854   0.469   4.052   1.553  0.3452  0.0662  0.3694
 6112WAT     H118855   0.470   4.107   1.631 -1.7633 -0.3738  0.7777
 6112WAT     H218856   0.448   4.112   1.481 -0.4931  0.0586  0.5943
 6113WAT      O18857   0.570   2.469   3.830 -0.2683 -0.3452 -0.0354
 6113WAT     H118858   0.601   2.467   3.920 -0.7176 -2.3167  0.1067
 6113WAT     H218859   0.647   2.449   3.777 -0.5432 -1.9774  0.1216
 6114WAT      O18860   0.987   4.302   2.323 -0.5150 -0.3139  0.1998
 6114WAT     H118861   0.997   4.298   2.228 -1.6609 -1.0165  0.0840
 6114WAT     H218862   0.921   4.369   2.338 -0.5571 -0.4122  0.4805
 6115WAT      O18863   2.481   3.966   0.602 -0.1325  0.4852 -0.0706
 6115WAT     H118864   2.468   4.015   0.521  0.0532  2.8171  1.2280
 6115WAT     H218865   2.476   4.032   0.671  0.0958 -1.3621  1.8130
 6116WAT      O18866   0.252   3.022   0.790 -0.1501 -0.1643 -0.5621
 6116WAT     H118867   0.253   2.997   0.698  0.1800  0.8136 -0.8435
 6116WAT     H218868   0.294   3.108   0.791 -2.1723  0.8988  0.1711
 6117WAT      O18869   1.625   3.117   1.256 -0.5728 -0.0563  0.1146
 6117WAT     H118870   1.716   3.091   1.246 -0.4737  1.0835 -2.9445
 6117WAT     H218871   1.628   3.189   1.320  1.0790  1.4385 -1.5069
 6118WAT      O18872   0.896   2.705   2.359 -0.0485  0.4212 -0.1633
 6118WAT     H118873   0.907   2.612   2.338 -0.6140  0.1805  0.5522
 6118WAT     H218874   0.883   2.747   2.274 -1.6429 -0.4347 -0.3830
 6119WAT      O18875   1.531   2.107   1.098 -0.1198 -0.5833 -0.0541
 6119WAT     H118876   1.532   2.194   1.138 -0.9955 -1.0702  1.0800
 6119WAT     H218877   1.439   2.092   1.076  0.1750 -0.8191 -1.1923
 6120WAT      O18878   0.810   2.342   5.858  0.7665 -0.4267 -0.5328
 6120WAT     H118879   0.788   2.342   5.951 -0.2802  1.2108 -0.7462
 6120WAT     H218880   0.903   2.364   5.855  0.4477  1.1207  0.0855
 6121WAT      O18881   0.950   1.783   4.889 -0.9843 -0.1612 -0.5174
 6121WAT     H118882   0.884   1.840   4.850 -2.0960 -0.9867  0.1153
 6121WAT     H218883   0.979   1.830   4.967 -2.3444 -0.6962  0.3433
 6122WAT      O18884   7.037   3.625   0.754  0.1085 -0.3681  0.1946
 6122WAT     H118885   6.988   3.570   0.815 -2.4100  2.3219  0.8545
 6122WAT     H218886   6.974   3.643   0.684  0.6611  1.8575  0.1970
 6123WAT      O18887   3.095   4.319   5.771 -0.5205  0.0172  0.0555
 6123WAT     H118888   3.136   4.274   5.697  0.5267  0.5002  0.3250
 6123WAT     H218889   3.013   4.353   5.736  0.1114  0.5110 -0.9818
 6124WAT      O18890   1.359   2.568   1.153 -0.4499 -0.0450 -0.2066
 6124WAT     H118891   1.288   2.561   1.217  0.6455  2.5812  1.4592
 6124WAT     H218892   1.352   2.657   1.120  2.5157  0.6003  0.6346
 6125WAT      O18893   6.039   3.245   2.358  0.6484  0.1874 -0.4563
 6125WAT     H118894   6.027   3.178   2.291 -0.4859  1.6188 -1.7586
 6125WAT     H218895   6.028   3.199   2.441 -2.7397 -0.8295 -1.3195
 6126WAT      O18896   1.110   2.814   5.450 -0.1549 -0.2316  0.2854
 6126WAT     H118897   1.148   2.872   5.384  1.0337  0.8204  1.8128
 6126WAT     H218898   1.120   2.726   5.414 -1.9862  0.4291 -2.0812
 6127WAT      O18899   4.465   5.103   0.972  0.1560 -0.4488  0.7414
 6127WAT     H118900   4.437   5.065   0.889 -1.3959 -0.9729  1.4664
 6127WAT     H218901   4.393   5.084   1.032  1.1775  0.0534  2.1713
 6128WAT      O18902   3.150   4.571   0.821 -0.4568 -0.2403  0.1550
 6128WAT     H118903   3.060   4.567   0.790 -0.0717  0.9100 -1.2158
 6128WAT     H218904   3.148   4.631   0.896 -0.9254 -0.7699  0.5730
 6129WAT      O18905   2.474   4.179   0.939 -0.6173  0.2087  0.2321
 6129WAT     H118906   2.384   4.149   0.951 -0.5679  0.3232  0.9195
 6129WAT     H218907   2.471   4.273   0.960 -0.3720  0.2468  0.1031
 6130WAT      O18908   2.831   4.002   0.406 -0.7340  0.2079  0.8599
 6130WAT     H118909   2.797   3.972   0.322  1.5057  1.9959 -0.8163
 6130WAT     H218910   2.894   3.934   0.432  0.5421  0.8878 -0.3255
 6131WAT      O18911   1.589   2.434   0.873  0.2177 -0.3721 -0.0894
 6131WAT     H118912   1.494   2.446   0.870  0.0445 -1.2675  1.0735
 6131WAT     H218913   1.620   2.496   0.938  0.6696  1.0617 -1.6048
 6132WAT      O18914   0.900   2.670   5.058 -0.6736 -0.1450  0.3235
 6132WAT     H118915   0.834   2.656   5.125 -1.5092 -0.1481 -0.4850
 6132WAT     H218916   0.952   2.590   5.059 -0.1792  0.1731  1.4947
 6133WAT      O18917   1.834   3.465   5.911  0.0300  0.0768  0.1437
 6133WAT     H118918   1.889   3.504   5.979 -1.9905  1.5354  1.0387
 6133WAT     H218919   1.798   3.386   5.952  0.8498 -0.4865 -0.1928
 6134WAT      O18920   1.267   1.113   4.781 -0.0692 -0.4935  0.9476
 6134WAT     H118921   1.293   1.127   4.690 -0.3259 -0.6609  0.8472
 6134WAT     H218922   1.180   1.153   4.787 -0.0290 -0.4332  1.1338
 6135WAT      O18923   2.143   3.173   2.272  0.4736  0.0640  0.2557
 6135WAT     H118924   2.100   3.094   2.241 -0.4997  1.4137 -2.0967
 6135WAT     H218925   2.229   3.144   2.302 -0.5582 -2.1241  1.3591
 6136WAT      O18926   2.139   3.012   0.684  0.0892  0.0580 -0.1867
 6136WAT     H118927   2.064   2.954   0.674 -0.3423  0.5031  0.4011
 6136WAT     H218928   2.200   2.963   0.740  0.7449 -0.7658 -1.5759
 6137WAT      O18929   0.630   1.543   1.813  0.0749  0.0335  0.3986
 6137WAT     H118930   0.713   1.590   1.803  0.2193  0.1592  1.9464
 6137WAT     H218931   0.643   1.462   1.763  0.9778  0.2332  0.2785
 6138WAT      O18932   0.361   3.824   1.895 -0.4767  0.1185 -0.3394
 6138WAT     H118933   0.364   3.747   1.838  2.7890 -0.4922  0.4823
 6138WAT     H218934   0.302   3.884   1.851 -0.2743 -1.4352 -2.9009
 6139WAT      O18935   2.668   5.601   1.320  0.2829 -0.0014 -0.2018
 6139WAT     H118936   2.754   5.585   1.361 -1.0699 -0.6359  2.6619
 6139WAT     H218937   2.671   5.692   1.292  2.1989 -0.2778 -1.0733
 6140WAT      O18938   0.980   0.032   1.952 -0.4615  0.5795 -0.3192
 6140WAT     H118939   0.998   0.107   2.009  1.0401 -1.7532  2.5366
 6140WAT     H218940   1.054   0.029   1.892 -0.2142  1.0119 -0.0456
 6141WAT      O18941   1.581   1.429   5.801 -0.0183 -0.9985 -0.0865
 6141WAT     H118942   1.610   1.404   5.713  0.8239  1.8335 -0.6892
 6141WAT     H218943   1.652   1.481   5.836 -2.6085  2.9590 -0.1009
 6142WAT      O18944   2.704   5.398   0.695  0.1657 -0.1017  0.5052
 6142WAT     H118945   2.665   5.385   0.608  0.0020  2.6408  0.0898
 6142WAT     H218946   2.798   5.383   0.681  0.1805  0.5961 -0.2538
 6143WAT      O18947   0.204   2.755   1.256  0.0707  0.5407 -0.4281
 6143WAT     H118948   0.160   2.765   1.171  0.3453 -0.6746 -0.7391
 6143WAT     H218949   0.161   2.679   1.296  0.4934  0.6064  0.1634
 6144WAT      O18950   1.383   4.058   1.293  0.0913  0.4121 -0.8750
 6144WAT     H118951   1.352   4.144   1.264  0.5555  1.0889  0.5359
 6144WAT     H218952   1.466   4.076   1.336 -1.0635 -0.3388  1.8390
 6145WAT      O18953   1.122   3.572   2.434  0.3712  0.4761  0.7645
 6145WAT     H118954   1.093   3.608   2.350  0.1493  1.2608  1.1655
 6145WAT     H218955   1.217   3.563   2.423  0.2456 -0.2098  0.1483
 6146WAT      O18956   7.146   2.836   2.530 -0.5217 -0.6345  0.4099
 6146WAT     H118957   7.074   2.900   2.533  0.5039  0.6818 -1.2042
 6146WAT     H218958   7.140   2.798   2.443  2.0520  1.2243 -0.7282
 6147WAT      O18959   1.490   3.210   1.999 -0.4363 -0.0398  0.0493
 6147WAT     H118960   1.409   3.210   1.949  0.6110 -0.8204 -1.7472
 6147WAT     H218961   1.488   3.292   2.049 -1.9294  0.3505 -0.6109
 6148WAT      O18962   6.895   2.016   1.391  0.2618  0.4121 -0.4369
 6148WAT     H118963   6.918   1.958   1.463  2.4754  0.5497 -0.9755
 6148WAT     H218964   6.940   2.098   1.411  0.6841  0.5430 -1.8235
 6149WAT      O18965   1.356   2.417   2.878  0.6831  0.2025 -0.3185
 6149WAT     H118966   1.315   2.392   2.795  1.3889  1.0638 -0.9383
 6149WAT     H218967   1.282   2.438   2.935  0.2240  1.6789 -1.3960
 6150WAT      O18968   0.998   3.773   2.846 -0.1945 -0.1499  0.2888
 6150WAT     H118969   1.064   3.818   2.900  1.0070 -1.3510 -0.1026
 6150WAT     H218970   1.049   3.731   2.777 -1.4744 -0.4882 -0.4748
 6151WAT      O18971   1.045   3.073   4.583  0.6687 -0.1022  0.0598
 6151WAT     H118972   0.977   3.139   4.597  0.2469 -0.2140 -1.3518
 6151WAT     H218973   1.106   3.086   4.656 -0.0311  1.0565  0.4663
 6152WAT      O18974   1.689   2.532   0.634 -0.2797  0.1048 -0.2403
 6152WAT     H118975   1.629   2.527   0.559 -0.7565 -1.9729  0.2202
 6152WAT     H218976   1.639   2.498   0.707 -0.0292  2.6801  1.2475
 6153WAT      O18977   0.395   2.840   0.111  0.0755 -0.1915  0.9647
 6153WAT     H118978   0.335   2.911   0.133 -1.0239 -0.3525 -1.1944
 6153WAT     H218979   0.470   2.884   0.070  0.0620 -0.1924  0.9393
 6154WAT      O18980   1.607   4.248   0.758  0.3051  0.0322  0.0605
 6154WAT     H118981   1.630   4.155   0.759  0.7294  0.1340  0.1918
 6154WAT     H218982   1.600   4.270   0.665 -1.6077 -0.5509  0.0223
 6155WAT      O18983   0.309   4.285   2.586  0.1825 -0.3843  0.1132
 6155WAT     H118984   0.254   4.242   2.650  1.8847 -0.7780  1.3967
 6155WAT     H218985   0.392   4.237   2.589  0.4772 -0.1156 -2.0632
 6156WAT      O18986   1.827   3.113   4.953 -0.0576  1.1259  0.0943
 6156WAT     H118987   1.738   3.117   4.987  0.1756  1.2469  0.6923
 6156WAT     H218988   1.882   3.137   5.027  0.4882  0.8162 -0.2072
 6157WAT      O18989   0.458   4.195   1.766  0.2724 -0.8919 -0.1310
 6157WAT     H118990   0.456   4.183   1.860 -0.6233 -1.2019 -0.1802
 6157WAT     H218991   0.435   4.287   1.753 -0.1074 -0.9770 -0.0674
 6158WAT      O18992   6.195   3.180   1.546 -0.5969 -0.2365 -0.0929
 6158WAT     H118993   6.162   3.243   1.481 -1.1138  0.4968  0.8562
 6158WAT     H218994   6.118   3.157   1.598 -0.0833 -0.3689  0.6253
 6159WAT      O18995   1.580   3.108   5.082 -0.1041  0.0893 -0.4516
 6159WAT     H118996   1.585   3.181   5.143  0.0978  0.4546 -0.9007
 6159WAT     H218997   1.513   3.050   5.119  0.3984  0.0298  0.4044
 6160WAT      O18998   0.685   3.610   1.484 -0.0619  0.0200 -0.1540
 6160WAT     H118999   0.778   3.635   1.487 -0.2721  0.9227 -0.9323
 6160WAT     H219000   0.642   3.681   1.436 -1.5956  0.8576  2.2849
 6161WAT      O19001   1.972   4.955   0.482 -0.3654 -0.1045  0.1241
 6161WAT     H119002   1.961   5.031   0.424  0.7859  1.2067  1.5187
 6161WAT     H219003   2.064   4.930   0.471  0.1431  0.7411  1.9373
 6162WAT      O19004   2.313   3.772   1.063 -0.4292  0.0085  0.1304
 6162WAT     H119005   2.301   3.854   1.111 -0.1210 -0.4057  0.9280
 6162WAT     H219006   2.233   3.722   1.080 -1.2116  0.6551 -1.4342
 6163WAT      O19007   3.520   4.810   0.678  0.1365 -0.4117 -0.4479
 6163WAT     H119008   3.480   4.882   0.726  1.6759  0.7467 -0.8548
 6163WAT     H219009   3.490   4.822   0.588 -1.0124 -1.3383 -0.2206
 6164WAT      O19010   1.743   4.615   1.391 -0.4217 -0.6899  0.3452
 6164WAT     H119011   1.756   4.628   1.297 -0.1877 -0.2494  0.4332
 6164WAT     H219012   1.785   4.692   1.432 -2.1839  0.1335  0.7230
 6165WAT      O19013   6.930   3.887   0.343  0.3192 -0.1525 -0.1289
 6165WAT     H119014   6.936   3.804   0.390 -2.4682  0.4179  1.4328
 6165WAT     H219015   6.851   3.878   0.288  0.1767  1.2995 -0.2158
 6166WAT      O19016   1.676   3.960   0.696  0.1982 -0.4223  0.8152
 6166WAT     H119017   1.738   3.893   0.666 -1.0365 -0.7570 -1.1500
 6166WAT     H219018   1.631   3.920   0.770 -0.1381 -1.5842  0.0075
 6167WAT      O19019   0.689   2.295   0.530  0.1865  0.0451 -0.1412
 6167WAT     H119020   0.770   2.247   0.512  1.2971  2.1520 -1.1297
 6167WAT     H219021   0.621   2.244   0.487  0.9392 -1.7922  0.7364
 6168WAT      O19022   1.923   3.795   0.731  0.0146  0.0339  0.1483
 6168WAT     H119023   1.971   3.741   0.794 -1.0079 -1.3853 -0.2312
 6168WAT     H219024   1.990   3.832   0.674  0.8881  0.6435  1.5227
 6169WAT      O19025   0.589   3.181   0.853 -0.6476  0.0124 -0.1916
 6169WAT     H119026   0.600   3.090   0.878 -0.1491  0.0571 -0.2537
 6169WAT     H219027   0.494   3.193   0.849 -0.7311 -0.2857  0.6076
 6170WAT      O19028   0.548   4.214   2.351  1.0477 -0.2773  0.0645
 6170WAT     H119029   0.566   4.295   2.397  0.4996  0.1680 -0.4901
 6170WAT     H219030   0.573   4.145   2.413 -2.4112  0.1968  2.3077
 6171WAT      O19031   0.254   5.594   3.332  0.3888  0.4416 -0.1508
 6171WAT     H119032   0.338   5.589   3.286  0.5906  1.9303 -0.0153
 6171WAT     H219033   0.240   5.688   3.346 -0.0798  0.0993  2.0825
 6172WAT      O19034   1.501   3.641   1.311  0.2008  0.2700 -0.0922
 6172WAT     H119035   1.525   3.710   1.373  1.3449  1.2719 -1.5845
 6172WAT     H219036   1.536   3.560   1.349 -0.2782  0.6452  1.1883
 6173WAT      O19037   1.248   5.419   3.457 -0.5789  0.3379  0.0898
 6173WAT     H119038   1.332   5.377   3.475 -0.0064  0.9171 -1.0697
 6173WAT     H219039   1.184   5.349   3.462  0.2272 -0.4888 -0.8372
 6174WAT      O19040   0.023   2.548   5.414  0.3070  0.1010  0.1826
 6174WAT     H119041  -0.020   2.611   5.356  2.8635  0.8598 -1.0509
 6174WAT     H219042   0.061   2.602   5.483 -0.7643 -0.5691  1.3343
 6175WAT      O19043   6.202   3.114   2.673  0.3949  0.6746  0.1930
 6175WAT     H119044   6.116   3.093   2.637  0.7337  0.3634 -0.4384
 6175WAT     H219045   6.224   3.199   2.635  1.5209 -0.4259 -1.7757
 6176WAT      O19046   1.591   3.563   1.795  0.3347 -0.0360 -0.0692
 6176WAT     H119047   1.540   3.519   1.863  0.5669 -1.4023 -0.7419
 6176WAT     H219048   1.537   3.553   1.716  0.7113  0.2876 -0.3680
 6177WAT      O19049   1.614   4.923   2.987  0.6342 -0.0400  0.1928
 6177WAT     H119050   1.694   4.885   2.951  1.6578  1.1296  1.1738
 6177WAT     H219051   1.558   4.937   2.910  0.8825 -1.9233 -0.3792
 6178WAT      O19052   0.947   2.371   1.025 -0.4728 -0.0155  0.2064
 6178WAT     H119053   1.002   2.357   1.102 -0.0287 -0.4702 -0.1875
 6178WAT     H219054   0.865   2.325   1.046 -0.4121 -0.0004  0.4766
 6179WAT      O19055   1.238   3.702   1.363 -0.6188  0.1397 -0.2150
 6179WAT     H119056   1.331   3.685   1.348 -0.0583  0.0472  2.8297
 6179WAT     H219057   1.201   3.618   1.389 -1.8000  0.0038 -2.1053
 6180WAT      O19058   2.405   4.936   1.875 -0.3180  0.4342  0.2345
 6180WAT     H119059   2.376   5.021   1.907 -0.7073 -0.1512  1.5207
 6180WAT     H219060   2.334   4.906   1.817 -0.6607  0.5407  0.5957
 6181WAT      O19061   0.879   3.242   5.980 -1.1917  0.0425  0.5693
 6181WAT     H119062   0.826   3.166   6.003 -2.3948  0.6532 -0.1133
 6181WAT     H219063   0.892   3.289   6.063 -0.3427 -0.9352  1.0167
 6182WAT      O19064   6.905   3.458   0.190  0.4165  0.3383  0.5706
 6182WAT     H119065   6.913   3.519   0.116  2.9970 -0.0470  0.4588
 6182WAT     H219066   6.868   3.379   0.151 -0.6196  0.9726  0.2227
 6183WAT      O19067   7.215   3.667   0.978 -0.1228  0.3825 -0.2823
 6183WAT     H119068   7.197   3.739   1.039 -0.6638  1.4949 -1.6791
 6183WAT     H219069   7.144   3.672   0.914  0.6282 -0.4892 -1.2226
 6184WAT      O19070   6.022   1.551   2.228 -0.1619  0.0731 -0.2084
 6184WAT     H119071   6.016   1.458   2.207  0.6956 -0.2027  0.7028
 6184WAT     H219072   5.982   1.559   2.315 -0.7341  0.6558 -0.5129
 6185WAT      O19073   1.229   4.049   5.902  0.3916  0.3811  0.5455
 6185WAT     H119074   1.166   4.095   5.846 -0.1695  1.3830  1.9524
 6185WAT     H219075   1.177   3.985   5.950  1.0909 -1.4401 -1.0142
 6186WAT      O19076   0.804   4.502   2.422 -0.2451 -0.4803  0.0004
 6186WAT     H119077   0.718   4.487   2.462  0.1017 -0.0466  0.9453
 6186WAT     H219078   0.795   4.585   2.376 -0.2361 -0.2554  0.3996
 6187WAT      O19079   1.836   4.344   1.441 -0.4990  0.2930 -0.2492
 6187WAT     H119080   1.810   4.437   1.442 -1.1278  0.1441 -1.2785
 6187WAT     H219081   1.863   4.328   1.350  1.2594 -0.1077  0.3040
 6188WAT      O19082   3.176   0.113   0.151 -0.2300  0.6291 -0.0241
 6188WAT     H119083   3.197   0.025   0.121  1.4627  0.3940  1.6600
 6188WAT     H219084   3.081   0.119   0.142 -0.8019 -2.4296  2.4250
 6189WAT      O19085   0.408   2.492   0.461  0.2942 -0.4715 -0.2740
 6189WAT     H119086   0.461   2.425   0.418  2.5577  0.6005  0.7140
 6189WAT     H219087   0.411   2.470   0.554 -0.3767  0.0308 -0.1253
 6190WAT      O19088   0.588   3.887   1.238  0.3493  0.2294  0.0817
 6190WAT     H119089   0.623   3.962   1.286 -0.1564 -0.2398  1.2260
 6190WAT     H219090   0.500   3.874   1.274  0.0942 -0.3831 -0.7206
 6191WAT      O19091   2.635   3.519   5.898  0.0014 -0.2270  0.8053
 6191WAT     H119092   2.544   3.545   5.881 -0.0498  0.9844  2.6115
 6191WAT     H219093   2.634   3.487   5.988  1.1714 -1.2983  0.4622
 6192WAT      O19094   6.053   2.361   1.917 -0.6024 -0.1381 -0.2982
 6192WAT     H119095   5.989   2.306   1.873 -1.7264  0.8460  0.0673
 6192WAT     H219096   6.055   2.442   1.866 -0.7391  0.3940  0.5212
 6193WAT      O19097   1.208   2.575   1.389  0.8422  0.4975 -0.4555
 6193WAT     H119098   1.253   2.613   1.464  0.1034  0.7951 -0.1595
 6193WAT     H219099   1.120   2.613   1.391  0.2766 -0.7441 -0.5120
 6194WAT      O19100   6.855   3.369   2.275 -0.4201 -0.0256 -0.3077
 6194WAT     H119101   6.844   3.321   2.192  2.1234 -0.4386 -0.4628
 6194WAT     H219102   6.818   3.310   2.341 -2.3005  0.2240 -1.0681
 6195WAT      O19103   1.158   2.688   4.435  0.0854  0.8304 -0.2076
 6195WAT     H119104   1.098   2.720   4.503  0.2113 -1.8206  1.2686
 6195WAT     H219105   1.106   2.626   4.384  0.6646  0.9925 -1.0131
 6196WAT      O19106   6.266   2.689   1.145 -0.2693  0.1574 -0.1138
 6196WAT     H119107   6.220   2.634   1.208 -0.1223  1.8323  1.5749
 6196WAT     H219108   6.292   2.630   1.075 -1.5927 -1.5512  0.7642
 6197WAT      O19109   1.819   4.532   1.725  0.0750 -0.1348  0.6235
 6197WAT     H119110   1.789   4.458   1.672 -1.5862  1.1934 -0.3954
 6197WAT     H219111   1.847   4.597   1.661  0.6842  0.4594  1.4814
 6198WAT      O19112   1.497   4.503   1.453 -0.5590 -0.3791  0.7881
 6198WAT     H119113   1.584   4.527   1.419 -1.8613 -0.8685 -3.4857
 6198WAT     H219114   1.463   4.583   1.491 -0.5015  1.7130 -3.0917
 6199WAT      O19115   2.119   3.719   0.496  0.0265  0.1455  0.6124
 6199WAT     H119116   2.183   3.741   0.428 -0.0534  0.0766  0.5158
 6199WAT     H219117   2.161   3.649   0.546  0.6417  1.0616  1.4350
 6200WAT      O19118   1.787   4.049   3.097  0.1002 -0.0273  0.7687
 6200WAT     H119119   1.737   4.067   3.017  1.5834 -0.5530 -0.3252
 6200WAT     H219120   1.748   4.106   3.163 -0.2003  1.5589 -0.7029
 6201WAT      O19121   1.976   3.002   2.134  0.1434  0.1389  0.5367
 6201WAT     H119122   1.891   3.033   2.104 -0.0928  0.3368  1.3790
 6201WAT     H219123   1.958   2.954   2.215  0.6760 -1.0103 -0.0026
 6202WAT      O19124   1.027   2.785   4.640  0.0437  0.1714 -0.6202
 6202WAT     H119125   0.944   2.777   4.688  0.1731  0.5615 -0.3206
 6202WAT     H219126   1.038   2.880   4.629  1.1836  0.2134  0.6458
 6203WAT      O19127   1.859   4.743   0.743 -0.0543  0.8842 -0.7614
 6203WAT     H119128   1.768   4.717   0.758 -0.2722  1.7804 -0.4409
 6203WAT     H219129   1.854   4.837   0.725  1.0262  1.5497  1.8656
 6204WAT      O19130   2.741   4.637   3.286  0.4379 -0.3261 -0.0299
 6204WAT     H119131   2.731   4.732   3.294  1.7572 -0.2749  1.4211
 6204WAT     H219132   2.716   4.619   3.195  2.0199  1.6870 -0.9695
 6205WAT      O19133   2.072   4.562   1.897 -0.2790  0.5167 -0.3291
 6205WAT     H119134   2.045   4.472   1.878  0.4063 -0.0281  1.1254
 6205WAT     H219135   1.993   4.614   1.884 -1.4334 -0.6941  1.3999
 6206WAT      O19136   0.753   0.725   2.539  0.1217  0.5222 -0.1336
 6206WAT     H119137   0.676   0.714   2.594 -0.1843 -0.5384 -0.7478
 6206WAT     H219138   0.721   0.771   2.462  0.0510 -0.1330 -0.4965
 6207WAT      O19139   2.481   3.062   0.647 -0.1288  1.2453  0.0860
 6207WAT     H119140   2.423   2.990   0.620  0.7477  0.2772  0.7179
 6207WAT     H219141   2.563   3.044   0.602  0.0743  1.9129  0.1813
 6208WAT      O19142   6.373   5.601   1.875  0.1226  0.3029 -0.4796
 6208WAT     H119143   6.428   5.534   1.834 -0.8274 -0.5222 -0.4480
 6208WAT     H219144   6.308   5.621   1.807 -0.6908 -0.1447  0.1510
 6209WAT      O19145   3.181   5.246   0.882  0.2266 -0.2003 -0.2489
 6209WAT     H119146   3.113   5.250   0.949 -1.0624  1.3025 -1.5652
 6209WAT     H219147   3.134   5.257   0.799  1.8729 -1.0720 -1.3515
 6210WAT      O19148   7.072   2.506   1.365  0.4226 -0.0423 -0.0314
 6210WAT     H119149   7.137   2.575   1.379 -1.1771  1.4269  0.5500
 6210WAT     H219150   7.085   2.478   1.275  0.4625  1.7550 -0.6163
 6211WAT      O19151   5.012   5.487   1.405 -0.5080  0.1631 -0.2790
 6211WAT     H119152   4.997   5.394   1.419  2.6814 -0.3787  0.3068
 6211WAT     H219153   5.033   5.494   1.312 -1.8094  0.5261 -0.5687
 6212WAT      O19154   1.673   1.820   4.147 -0.4851  0.5194 -0.1435
 6212WAT     H119155   1.621   1.885   4.099 -1.1242 -0.4095 -0.7330
 6212WAT     H219156   1.763   1.837   4.121 -0.5918  1.4554  0.0604
 6213WAT      O19157   2.159   1.636   0.169 -0.0522 -0.3788 -0.0576
 6213WAT     H119158   2.217   1.677   0.105 -0.1887 -0.7322 -0.4164
 6213WAT     H219159   2.125   1.709   0.221  0.5215 -0.1488 -0.0050
 6214WAT      O19160   0.608   1.387   4.426  0.3351  0.1998  0.0564
 6214WAT     H119161   0.566   1.467   4.456  1.7060  1.8411 -2.1462
 6214WAT     H219162   0.623   1.401   4.333  2.1501 -1.9363 -0.0534
 6215WAT      O19163   0.355   2.839   3.687 -0.4461  0.0825  0.3151
 6215WAT     H119164   0.259   2.840   3.692 -0.4595 -0.5556  0.2659
 6215WAT     H219165   0.377   2.747   3.681  0.1639  0.2458  0.0592
 6216WAT      O19166   3.248   6.084   3.047 -0.0886 -0.0759 -0.3568
 6216WAT     H119167   3.231   6.177   3.065  4.9965  1.4173 -1.8305
 6216WAT     H219168   3.259   6.045   3.134  0.3210  1.3388  0.2571
 6217WAT      O19169   1.258   1.836   1.142  0.4524  0.3588 -0.6938
 6217WAT     H119170   1.325   1.823   1.076  1.0231  1.9372 -0.4744
 6217WAT     H219171   1.307   1.849   1.223 -0.1920 -0.1350 -0.2133
 6218WAT      O19172   3.288   5.327   2.660 -0.6033 -0.2385 -0.2793
 6218WAT     H119173   3.298   5.235   2.686 -0.3582 -0.0736  0.2349
 6218WAT     H219174   3.206   5.330   2.610 -0.4504 -0.7900 -0.5640
 6219WAT      O19175   1.976   1.982   5.100  0.7082  0.0983 -0.5235
 6219WAT     H119176   2.063   1.965   5.136  1.0591 -0.4411 -1.5791
 6219WAT     H219177   1.933   1.897   5.100 -0.5739  0.6428  1.7680
 6220WAT      O19178   1.547   0.550   2.883  0.6006  0.3550  0.1052
 6220WAT     H119179   1.541   0.580   2.792  0.4607  0.6121  0.1993
 6220WAT     H219180   1.638   0.520   2.892  0.3698 -0.5363 -0.3841
 6221WAT      O19181   2.106   2.943   5.384 -0.4545 -0.4498  0.5740
 6221WAT     H119182   2.170   2.990   5.438 -0.5187 -0.5961  0.7780
 6221WAT     H219183   2.140   2.951   5.294 -0.5227  0.0809  0.5944
 6222WAT      O19184   0.957   1.525   4.839  0.4489  0.0514 -0.1283
 6222WAT     H119185   0.956   1.618   4.862 -1.7054 -0.5136  2.5257
 6222WAT     H219186   0.868   1.506   4.811  0.8683 -1.2252 -0.6791
 6223WAT      O19187   1.318   0.359   2.343 -0.3566  0.3499 -0.8309
 6223WAT     H119188   1.272   0.439   2.366  1.6275  1.2356  0.3143
 6223WAT     H219189   1.271   0.289   2.389 -0.5164  1.2363  0.3892
 6224WAT      O19190   1.601   0.301   4.705  0.4852  0.7380 -0.2780
 6224WAT     H119191   1.630   0.236   4.770 -1.8552  0.6521  0.7867
 6224WAT     H219192   1.658   0.377   4.720  1.7988 -0.2769 -0.0235
 6225WAT      O19193   2.364   3.587   5.840 -0.0956  0.1422 -0.3514
 6225WAT     H119194   2.340   3.582   5.933  1.0090  1.5146  0.0492
 6225WAT     H219195   2.331   3.672   5.812  2.6545  1.3916 -0.2004
 6226WAT      O19196   2.850   1.639   4.673  0.0197 -0.3132  0.4267
 6226WAT     H119197   2.769   1.643   4.725  1.4684  0.9374  2.7622
 6226WAT     H219198   2.823   1.667   4.586 -2.0396  0.3507  1.2082
 6227WAT      O19199   1.347   4.376   1.701 -0.0823 -0.0943  0.3332
 6227WAT     H119200   1.402   4.438   1.652 -1.3876  0.1358 -0.8929
 6227WAT     H219201   1.259   4.412   1.696 -0.6096 -1.2274  0.9983
 6228WAT      O19202   6.577   1.645   4.566  0.2841 -0.0693  0.3971
 6228WAT     H119203   6.626   1.714   4.611  0.1341  0.7532 -0.6648
 6228WAT     H219204   6.506   1.691   4.521 -1.1708 -1.1701  1.4669
 6229WAT      O19205   0.493   2.160   5.646  0.2872 -0.4619 -0.3975
 6229WAT     H119206   0.510   2.069   5.623  0.0660 -0.3357 -1.1098
 6229WAT     H219207   0.571   2.207   5.618 -0.1107 -0.2616 -1.2218
 6230WAT      O19208   2.835   4.840   0.105 -0.5438 -0.0714  0.1975
 6230WAT     H119209   2.850   4.808   0.016 -1.2696  0.9558 -0.3149
 6230WAT     H219210   2.904   4.800   0.157 -0.1109 -0.6919 -0.8241
 6231WAT      O19211   1.000   2.050   3.297 -0.4160 -0.3950 -0.2619
 6231WAT     H119212   1.037   2.077   3.381  0.1687  0.0935 -0.6663
 6231WAT     H219213   0.945   2.123   3.271  1.3193  0.5723 -1.4517
 6232WAT      O19214   1.816   2.267   3.975 -0.1036 -0.2433 -0.4593
 6232WAT     H119215   1.810   2.231   3.887  0.5611  0.0010 -0.6140
 6232WAT     H219216   1.831   2.360   3.962 -1.5829  0.0758 -0.0620
 6233WAT      O19217   2.182   4.094   5.474  0.4749  0.2449  0.1430
 6233WAT     H119218   2.137   4.053   5.400  1.3904 -0.0349 -0.2696
 6233WAT     H219219   2.111   4.130   5.528 -0.2100  0.5043 -0.8987
 6234WAT      O19220   2.345   2.634   5.128  0.1428  0.1042  0.2261
 6234WAT     H119221   2.356   2.729   5.124 -0.1339  0.1579  0.6963
 6234WAT     H219222   2.322   2.617   5.219 -1.4818 -0.2361 -0.2235
 6235WAT      O19223   0.254   0.848   3.746  0.3411  0.0619  0.3616
 6235WAT     H119224   0.297   0.903   3.681  0.0110 -1.0787 -0.8940
 6235WAT     H219225   0.168   0.889   3.759  0.3829  0.2715  0.0035
 6236WAT      O19226   0.943   1.600   4.481 -0.6410 -0.1239 -0.1135
 6236WAT     H119227   1.015   1.580   4.541 -1.1344  0.1995  0.6004
 6236WAT     H219228   0.982   1.658   4.416 -0.6926  1.6520  1.3696
 6237WAT      O19229   0.670   2.499   4.533  0.0213  0.3380  0.3771
 6237WAT     H119230   0.722   2.567   4.491 -1.5049  1.1214 -0.3477
 6237WAT     H219231   0.587   2.543   4.555 -1.1821 -1.3777 -0.5162
 6238WAT      O19232   2.180   2.285   5.726  0.0282 -0.2739  0.3692
 6238WAT     H119233   2.129   2.284   5.645  0.0199 -3.0691  0.3072
 6238WAT     H219234   2.271   2.287   5.697  0.0319 -1.6268  0.2460
 6239WAT      O19235   1.746   3.879   5.480  0.0530  0.5492 -0.0750
 6239WAT     H119236   1.820   3.836   5.522 -1.3049 -0.4710  1.4153
 6239WAT     H219237   1.675   3.815   5.487 -0.5141  0.6569 -3.2311
 6240WAT      O19238   1.349   2.435   4.360  0.4518  0.4777 -0.7445
 6240WAT     H119239   1.340   2.503   4.428  3.7064  1.3320 -1.0206
 6240WAT     H219240   1.388   2.361   4.406  1.4936  0.6072 -1.3995
 6241WAT      O19241   1.742   3.240   0.049 -0.4842  0.3982  0.4954
 6241WAT     H119242   1.647   3.246   0.038 -0.3595  0.2307 -0.7480
 6241WAT     H219243   1.758   3.281   0.134 -1.5143  1.7816  0.0692
 6242WAT      O19244   0.693   3.338   0.432  0.6533  0.0444  0.4508
 6242WAT     H119245   0.675   3.294   0.516  1.4435  0.1873  0.7086
 6242WAT     H219246   0.764   3.398   0.452  2.5618 -1.6534 -0.8352
 6243WAT      O19247   1.518   1.818   4.378  0.2265 -0.5659 -0.2753
 6243WAT     H119248   1.574   1.835   4.303  0.1503 -1.3532 -0.5198
 6243WAT     H219249   1.498   1.725   4.372  0.8580 -0.8191  1.1506
 6244WAT      O19250   6.300   2.769   2.762  0.0995  0.3144  0.2827
 6244WAT     H119251   6.345   2.685   2.752  0.0982  0.2051  1.1742
 6244WAT     H219252   6.226   2.763   2.701  0.3604 -0.1430 -0.0007
 6245WAT      O19253   2.259   3.811   5.758  0.0287  0.3332  0.1567
 6245WAT     H119254   2.290   3.899   5.779 -0.8201  0.4641  0.9420
 6245WAT     H219255   2.172   3.806   5.798 -0.9145 -0.0721 -1.8394
 6246WAT      O19256   1.563   1.020   3.077  0.2898  0.2059 -0.5015
 6246WAT     H119257   1.613   1.095   3.108 -0.2737  0.3833 -0.0215
 6246WAT     H219258   1.573   0.954   3.146  0.3554  0.0170 -0.6869
 6247WAT      O19259   1.818   5.538   5.385  0.5651  0.0504 -0.0627
 6247WAT     H119260   1.834   5.581   5.301 -1.0551  0.9564  0.0429
 6247WAT     H219261   1.797   5.610   5.445 -0.6609 -0.7579  0.5151
 6248WAT      O19262   1.222   3.070   5.245  0.2142  0.5189 -0.1529
 6248WAT     H119263   1.160   3.020   5.192 -1.7801  1.0469  1.5674
 6248WAT     H219264   1.168   3.135   5.290  2.0258  1.0180  1.4170
 6249WAT      O19265   0.028   1.221   4.028  0.3919  0.0149 -0.3449
 6249WAT     H119266  -0.055   1.232   3.983 -0.2253 -1.6441  0.3238
 6249WAT     H219267   0.067   1.309   4.028 -0.7139  0.5471 -1.8608
 6250WAT      O19268   0.326   2.700   5.100 -0.2044  0.4400  0.1277
 6250WAT     H119269   0.385   2.626   5.112 -1.4599 -0.6669 -0.2689
 6250WAT     H219270   0.317   2.709   5.005  0.3251  1.4383  0.1603
 6251WAT      O19271   6.872   1.662   4.903  0.3508  0.0279  0.7014
 6251WAT     H119272   6.778   1.646   4.914  0.4816 -0.5847  0.9535
 6251WAT     H219273   6.876   1.734   4.839 -0.3141  1.1551  1.8808
 6252WAT      O19274   1.509   3.433   4.063 -0.1229  0.2731 -0.4413
 6252WAT     H119275   1.576   3.497   4.088 -0.6286  0.6183  0.0358
 6252WAT     H219276   1.498   3.377   4.140  0.8057 -0.8380 -1.0806
 6253WAT      O19277   0.003   3.407   5.289  0.0471  0.4277  0.6333
 6253WAT     H119278  -0.048   3.471   5.338 -1.6149 -1.2871  1.2766
 6253WAT     H219279  -0.024   3.417   5.198 -3.0130 -1.6548  1.1616
 6254WAT      O19280   7.377   2.092   3.233 -0.6119  0.4485 -0.1983
 6254WAT     H119281   7.315   2.142   3.286  0.0539  0.5939  0.4495
 6254WAT     H219282   7.398   2.149   3.160 -0.1198  0.9931  0.3563
 6255WAT      O19283   6.997   2.768   5.006  0.1857  0.6510 -0.2790
 6255WAT     H119284   7.072   2.827   5.004  0.6403  0.0691 -1.2738
 6255WAT     H219285   6.968   2.768   5.098  1.4561  0.8178  0.1395
 6256WAT      O19286   2.498   0.287   5.553 -0.2623 -0.2840  0.1851
 6256WAT     H119287   2.575   0.264   5.502  0.0881 -0.5551  0.8230
 6256WAT     H219288   2.425   0.274   5.493  0.1952  0.1274 -0.4726
 6257WAT      O19289   2.518   3.992   0.168 -0.6221  0.5393  0.2576
 6257WAT     H119290   2.611   3.969   0.170 -0.6190  0.5657  1.2367
 6257WAT     H219291   2.512   4.070   0.222 -1.2672  0.3059  0.5315
 6258WAT      O19292   0.782   3.570   5.445  0.2316  0.4825 -0.5442
 6258WAT     H119293   0.776   3.504   5.377 -1.3095 -1.8023  1.6275
 6258WAT     H219294   0.837   3.530   5.513 -0.0516  1.7843  0.5147
 6259WAT      O19295   1.306   2.122   0.465  1.0021  0.1601 -0.3527
 6259WAT     H119296   1.224   2.171   0.475  0.3448 -0.9321 -0.1869
 6259WAT     H219297   1.368   2.166   0.522  0.5324  1.0125 -0.4896
 6260WAT      O19298   5.990   2.234   3.977 -0.0689  0.5662 -0.3063
 6260WAT     H119299   5.936   2.308   4.006  0.5541  0.6968  0.5369
 6260WAT     H219300   6.043   2.212   4.053  0.5701 -0.0151 -0.9137
 6261WAT      O19301   6.839   0.889   4.157  0.1901  0.5431 -0.4930
 6261WAT     H119302   6.871   0.979   4.154  2.9495 -0.3115  0.7881
 6261WAT     H219303   6.858   0.858   4.245 -1.6610 -1.0158 -0.5564
 6262WAT      O19304   2.060   3.699   5.223  0.3117  0.3914 -0.3458
 6262WAT     H119305   1.971   3.671   5.201  1.3021 -2.3637 -1.2983
 6262WAT     H219306   2.066   3.684   5.317  0.4708 -1.9401 -0.6548
 6263WAT      O19307   1.097   3.277   0.471 -0.3578 -0.1230  0.1368
 6263WAT     H119308   1.048   3.220   0.532 -0.7382  0.5109  0.4412
 6263WAT     H219309   1.187   3.273   0.502 -0.1065 -1.6808 -0.7152
 6264WAT      O19310   6.745   3.658   4.679  0.2418 -0.0735  0.2150
 6264WAT     H119311   6.763   3.629   4.590  0.9298  2.1270 -0.4085
 6264WAT     H219312   6.656   3.692   4.676  0.0010 -0.6581  0.5609
 6265WAT      O19313   0.807   2.244   5.056  0.3915  0.3692  0.3711
 6265WAT     H119314   0.825   2.296   5.134  0.6270  0.3167  0.3503
 6265WAT     H219315   0.729   2.193   5.078 -1.0219  2.1437 -0.2540
 6266WAT      O19316   7.151   1.834   3.744  0.0708 -0.5294  0.0673
 6266WAT     H119317   7.117   1.749   3.769 -1.6000 -0.0660 -0.4963
 6266WAT     H219318   7.119   1.894   3.811 -1.8610  0.2146 -1.4143
 6267WAT      O19319   1.690   2.262   5.403 -0.2968  0.0255  0.0101
 6267WAT     H119320   1.684   2.320   5.327  1.0397  0.3898  0.1721
 6267WAT     H219321   1.764   2.205   5.384 -0.0217  0.0440  0.9923
 6268WAT      O19322   0.537   2.289   4.320 -0.1946 -0.2331 -0.1585
 6268WAT     H119323   0.446   2.260   4.313 -0.2012 -0.3930  0.4723
 6268WAT     H219324   0.564   2.261   4.408  0.5494 -0.4395 -0.4420
 6269WAT      O19325   2.776   0.785   1.637 -0.5728 -0.5255 -0.1035
 6269WAT     H119326   2.764   0.730   1.714  0.2806  1.3028  1.4362
 6269WAT     H219327   2.751   0.873   1.666  0.3718  0.3338 -1.7141
 6270WAT      O19328   0.901   1.478   2.665 -0.2825  0.1136  0.5349
 6270WAT     H119329   0.980   1.480   2.720 -0.4723 -0.4538  0.8374
 6270WAT     H219330   0.837   1.431   2.717 -0.8408  0.6149  0.3022
 6271WAT      O19331   0.828   3.264   4.478 -0.5153 -0.2248  0.7269
 6271WAT     H119332   0.863   3.219   4.400 -1.0103 -1.1662  1.0340
 6271WAT     H219333   0.748   3.306   4.447 -0.1721  0.2704  0.4932
 6272WAT      O19334   0.730   2.001   4.622  0.4106 -0.2418 -0.1146
 6272WAT     H119335   0.693   2.086   4.599  1.9145  0.5357  0.2159
 6272WAT     H219336   0.772   2.015   4.706  0.1325 -1.5009  0.2595
 6273WAT      O19337   1.635   1.435   4.680  0.2896  0.2475  0.1326
 6273WAT     H119338   1.654   1.341   4.673  0.7252  0.3147  0.3401
 6273WAT     H219339   1.673   1.473   4.601  0.2411  0.2649  0.1177
 6274WAT      O19340   1.361   1.381   2.784  0.6457 -0.0829 -0.2404
 6274WAT     H119341   1.377   1.394   2.691 -1.9300 -0.0110 -0.7387
 6274WAT     H219342   1.381   1.288   2.799  1.3927 -0.0112 -0.7735
 6275WAT      O19343   0.084   1.673   3.602  0.2183  0.9724 -0.4481
 6275WAT     H119344   0.092   1.633   3.516  1.6658  0.9178 -0.3034
 6275WAT     H219345   0.084   1.767   3.585 -1.2639  0.9672 -0.6265
 6276WAT      O19346   6.938   1.876   4.716 -0.0896  0.5551  0.3988
 6276WAT     H119347   6.885   1.853   4.640 -0.1137  0.2214  0.5163
 6276WAT     H219348   7.026   1.848   4.693 -0.3362 -0.8643  1.0498
 6277WAT      O19349   6.395   3.291   2.902  0.7659 -0.3561  0.4162
 6277WAT     H119350   6.376   3.359   2.967  3.2780 -0.7436  1.6856
 6277WAT     H219351   6.355   3.212   2.939  0.8665 -0.2684  0.7175
 6278WAT      O19352   7.196   2.793   1.619 -0.5726  0.0409 -0.1485
 6278WAT     H119353   7.174   2.855   1.689 -0.5170 -0.0473 -0.0526
 6278WAT     H219354   7.118   2.738   1.611 -0.4644 -0.1450  0.0557
 6279WAT      O19355   2.895   2.541   4.410  0.5962  0.1584  0.1123
 6279WAT     H119356   2.897   2.445   4.415 -1.8341  0.0555  0.3190
 6279WAT     H219357   2.876   2.569   4.500  1.9410  0.9242  0.1947
 6280WAT      O19358   0.581   1.709   2.240  0.2610 -0.0122 -0.2076
 6280WAT     H119359   0.647   1.642   2.224 -0.3421 -0.4705 -0.8433
 6280WAT     H219360   0.583   1.765   2.161 -0.6952 -0.5460 -0.6322
 6281WAT      O19361   2.996   4.857   5.056 -0.3308  0.1330  0.0883
 6281WAT     H119362   3.045   4.923   5.007  2.2496 -0.5514  1.5673
 6281WAT     H219363   3.056   4.827   5.124 -2.7328 -1.0290  1.8774
 6282WAT      O19364   1.452   1.732   3.622 -0.3677  0.0727 -0.2562
 6282WAT     H119365   1.528   1.731   3.565 -0.9923 -2.2071 -1.1610
 6282WAT     H219366   1.379   1.758   3.565 -0.5177  0.8745  0.2779
 6283WAT      O19367   1.020   6.104   3.017 -0.1899 -0.0954 -0.4772
 6283WAT     H119368   1.063   6.027   2.979  0.0189  0.1535 -0.7553
 6283WAT     H219369   0.939   6.114   2.966 -0.2864 -0.2166 -0.3464
 6284WAT      O19370   1.719   1.269   5.286  0.5997  0.4473 -0.6243
 6284WAT     H119371   1.732   1.251   5.193 -0.6819  2.5809 -1.3053
 6284WAT     H219372   1.624   1.267   5.297  0.7461 -0.0415  0.7249
 6285WAT      O19373   3.222   2.457   0.017 -0.0515 -0.6529  0.3389
 6285WAT     H119374   3.238   2.363   0.023 -2.3246 -1.1932 -0.9806
 6285WAT     H219375   3.156   2.475   0.084 -0.0172 -0.1143  0.2336
 6286WAT      O19376   7.338   2.560   4.210 -0.0317 -0.2583  0.2885
 6286WAT     H119377   7.243   2.560   4.222  0.1037 -0.5085  1.4609
 6286WAT     H219378   7.354   2.490   4.146 -0.6024 -0.4745  0.3777
 6287WAT      O19379   7.308   1.582   2.963  0.7818  0.4851 -0.5780
 6287WAT     H119380   7.228   1.528   2.955  1.0313 -0.0348  0.3319
 6287WAT     H219381   7.277   1.672   2.952  0.2064  0.2347 -1.1171
 6288WAT      O19382   1.328   0.761   4.328  0.5239  0.2535 -0.0881
 6288WAT     H119383   1.253   0.742   4.272 -2.7564  0.0145  3.9066
 6288WAT     H219384   1.348   0.679   4.372  2.7710  0.4888 -0.5342
 6289WAT      O19385   0.672   1.118   4.477 -0.5087  0.3694 -0.0671
 6289WAT     H119386   0.645   1.207   4.497 -0.4632  0.2823  0.3937
 6289WAT     H219387   0.596   1.079   4.433 -1.3506 -0.0255  1.6520
 6290WAT      O19388   1.536   5.871   4.359  0.5526  0.1536  0.2518
 6290WAT     H119389   1.630   5.855   4.351  1.0506  1.9467  1.7439
 6290WAT     H219390   1.504   5.795   4.408  1.5051  0.1747  0.9522
 6291WAT      O19391   1.386   1.536   4.311  0.1797 -0.0944 -0.1304
 6291WAT     H119392   1.375   1.462   4.252 -1.7669  0.6104 -0.7243
 6291WAT     H219393   1.337   1.607   4.270  0.3082  0.9481  1.4285
 6292WAT      O19394   1.043   3.663   0.672 -0.2227 -0.0630  0.5985
 6292WAT     H119395   1.003   3.631   0.753  0.6507 -0.2646  0.9597
 6292WAT     H219396   1.080   3.748   0.696 -1.2642  0.5809  0.0131
 6293WAT      O19397   0.388   1.990   4.772 -0.2156 -0.3490 -0.3975
 6293WAT     H119398   0.335   1.956   4.701 -1.1055  0.1808 -0.0062
 6293WAT     H219399   0.413   2.078   4.743 -0.6187 -0.1146 -0.0488
 6294WAT      O19400   2.046   1.212   0.320  0.1486  0.1127 -0.2495
 6294WAT     H119401   2.039   1.297   0.278 -0.2829  0.8228  1.1959
 6294WAT     H219402   2.119   1.169   0.276 -0.5501  0.6284 -1.9970
 6295WAT      O19403   1.190   1.047   4.105  0.3071  0.0893 -0.7740
 6295WAT     H119404   1.128   1.101   4.154  0.0233 -0.1591 -0.8626
 6295WAT     H219405   1.151   0.960   4.104  1.1663 -0.3346  0.1163
 6296WAT      O19406   1.796   1.523   5.359 -0.2995 -0.2782  0.0846
 6296WAT     H119407   1.830   1.520   5.448  1.6410 -2.2618 -0.6242
 6296WAT     H219408   1.786   1.431   5.334  0.4560  0.1911 -2.1535
 6297WAT      O19409   2.878   0.965   5.142  0.0069 -0.4633  0.9759
 6297WAT     H119410   2.880   0.880   5.099  0.1908  0.6022 -1.2739
 6297WAT     H219411   2.963   1.004   5.122 -0.6717  0.8689  0.5527
 6298WAT      O19412   1.510   2.021   4.091  0.0483 -0.3807  0.0648
 6298WAT     H119413   1.417   1.998   4.086  0.8414 -4.3069  0.7933
 6298WAT     H219414   1.511   2.116   4.077 -3.8143 -0.4731 -2.2872
 6299WAT      O19415   5.944   2.396   5.357  0.4824 -0.1828 -0.0179
 6299WAT     H119416   5.888   2.442   5.418  2.9274  0.8081  1.6400
 6299WAT     H219417   5.884   2.351   5.298 -1.9886  0.6439  1.7221
 6300WAT      O19418   6.119   2.135   4.477  0.3563 -0.2366  0.4128
 6300WAT     H119419   6.047   2.081   4.510  1.6750 -1.2163  1.8661
 6300WAT     H219420   6.197   2.097   4.517  1.5908  1.3751 -0.3451
 6301WAT      O19421   1.815   3.168   5.461  0.4619  0.3495 -0.1950
 6301WAT     H119422   1.772   3.094   5.504  0.6843 -0.0226 -0.6108
 6301WAT     H219423   1.821   3.234   5.530  1.1107 -0.3589  0.4484
 6302WAT      O19424   6.808   1.784   3.897 -0.2502  0.4108 -0.2987
 6302WAT     H119425   6.872   1.854   3.883 -0.3411  0.4401 -0.5751
 6302WAT     H219426   6.761   1.810   3.976 -0.0418  0.4814 -0.1971
 6303WAT      O19427   0.294   1.592   3.783 -0.2166  0.3182 -0.5152
 6303WAT     H119428   0.345   1.668   3.755  1.6916 -1.1600 -1.3037
 6303WAT     H219429   0.208   1.606   3.744  0.0820  2.0442 -0.6490
 6304WAT      O19430   1.293   2.388   2.088 -0.0623 -0.0606 -0.6430
 6304WAT     H119431   1.223   2.357   2.031 -1.6458  1.7725  0.1723
 6304WAT     H219432   1.328   2.309   2.129 -3.0751 -0.9259  0.4767
 6305WAT      O19433   5.514   2.097   3.846 -0.3079 -0.1679 -0.2599
 6305WAT     H119434   5.455   2.153   3.895 -0.7639 -0.0731 -0.8959
 6305WAT     H219435   5.470   2.012   3.844 -1.0871  0.2279 -1.8407
 6306WAT      O19436   5.348   1.468   4.532  0.4593 -0.0680 -0.3168
 6306WAT     H119437   5.367   1.527   4.459  0.6508  0.5360  0.2054
 6306WAT     H219438   5.358   1.380   4.496 -2.7914  0.0967 -1.9363
 6307WAT      O19439   2.354   3.058   4.646 -0.3192 -0.1539 -0.5491
 6307WAT     H119440   2.267   3.059   4.686 -0.3548  0.3598 -0.6418
 6307WAT     H219441   2.340   3.013   4.562 -0.0765 -2.0269  0.3691
 6308WAT      O19442   7.410   1.147   2.885 -0.3200  0.1695  0.0817
 6308WAT     H119443   7.501   1.120   2.898 -0.2064 -0.4007 -1.6799
 6308WAT     H219444   7.401   1.226   2.939  0.8152 -0.5066  1.3120
 6309WAT      O19445   6.624   2.463   3.603 -0.5187 -0.5587  0.1704
 6309WAT     H119446   6.659   2.416   3.527 -0.8554  1.2085 -1.1472
 6309WAT     H219447   6.529   2.465   3.589 -0.4280  1.8087 -0.7060
 6310WAT      O19448   0.085   1.677   1.707 -0.3166 -0.1611  0.3934
 6310WAT     H119449   0.121   1.591   1.728  2.4713  0.5400 -0.9999
 6310WAT     H219450   0.077   1.721   1.792  1.9268 -0.5109  0.8513
 6311WAT      O19451   1.442   2.491   3.934  0.3880 -0.0055 -0.6552
 6311WAT     H119452   1.463   2.421   3.995  0.9345 -0.8624 -1.7844
 6311WAT     H219453   1.525   2.536   3.918 -0.0606  1.2987  0.5027
 6312WAT      O19454   6.768   5.839   2.483  0.5438 -0.5212 -0.0209
 6312WAT     H119455   6.704   5.773   2.457  0.3284 -0.1431 -0.4776
 6312WAT     H219456   6.848   5.815   2.437  0.5093 -0.5549 -0.0625
 6313WAT      O19457   0.531   1.342   2.144  0.0734  0.1597 -0.2610
 6313WAT     H119458   0.556   1.254   2.172 -0.2745  0.1830  0.1255
 6313WAT     H219459   0.568   1.400   2.210 -0.2231  0.2611 -0.1834
 6314WAT      O19460   0.220   0.109   2.719 -0.2400 -0.8302  0.1836
 6314WAT     H119461   0.181   0.044   2.778  1.2649 -0.0237  2.1762
 6314WAT     H219462   0.286   0.060   2.670  1.5808 -0.7243  2.3691
 6315WAT      O19463   0.041   2.227   3.008 -0.7333  0.0263 -0.2240
 6315WAT     H119464   0.049   2.318   2.980  0.7189 -0.0861 -0.2848
 6315WAT     H219465   0.131   2.201   3.028 -1.3158 -0.8649  1.4823
 6316WAT      O19466   3.640   1.559   2.209 -0.4392  0.8170 -0.0870
 6316WAT     H119467   3.651   1.611   2.288  0.6206  0.2633  0.1391
 6316WAT     H219468   3.686   1.477   2.227  0.0279  0.7829 -1.3696
 6317WAT      O19469   7.091   1.621   4.174  0.3582 -0.3026  0.4060
 6317WAT     H119470   7.022   1.561   4.202 -1.5281  1.1542 -0.8346
 6317WAT     H219471   7.061   1.707   4.205  1.0156  0.5286 -1.1849
 6318WAT      O19472   1.350   3.339   3.444 -0.3293  0.4855  0.0346
 6318WAT     H119473   1.406   3.261   3.442 -2.2332 -1.0248 -3.0163
 6318WAT     H219474   1.405   3.410   3.412  1.0095  0.1085  1.3925
 6319WAT      O19475   5.887   1.240   4.651  0.0155 -0.3534 -0.6850
 6319WAT     H119476   5.808   1.292   4.634  0.6478  1.1863  0.7579
 6319WAT     H219477   5.880   1.165   4.592 -1.6265  0.6723 -1.8729
 6320WAT      O19478   2.741   0.642   1.862  0.5112  0.5014  0.0217
 6320WAT     H119479   2.811   0.577   1.859 -0.5208 -0.6237 -0.4082
 6320WAT     H219480   2.714   0.645   1.954 -0.0769 -0.3992 -0.1117
 6321WAT      O19481   5.732   0.766   2.554  0.4876 -0.4451  0.3459
 6321WAT     H119482   5.763   0.691   2.605  3.6657  1.1586  1.0934
 6321WAT     H219483   5.812   0.815   2.534 -1.3026  2.0861 -1.1887
 6322WAT      O19484   6.158   5.579   3.351 -0.3087 -0.0011 -0.1395
 6322WAT     H119485   6.090   5.561   3.416  0.0073  0.5439  0.3581
 6322WAT     H219486   6.237   5.593   3.403 -0.1190  0.7647 -0.6167
 6323WAT      O19487   1.669   0.588   2.105 -0.3597 -0.3468 -0.0523
 6323WAT     H119488   1.609   0.550   2.040 -0.2916 -0.8120  0.1498
 6323WAT     H219489   1.726   0.515   2.130 -1.1009 -0.4838  1.3669
 6324WAT      O19490   0.602   1.186   3.847 -0.6961  0.3168  0.4828
 6324WAT     H119491   0.517   1.188   3.891 -0.6457  0.7826  0.5653
 6324WAT     H219492   0.662   1.150   3.912 -1.2744 -2.5287 -0.3896
 6325WAT      O19493   0.075   0.705   2.392 -0.1446 -0.3575  0.6798
 6325WAT     H119494   0.079   0.772   2.461 -2.4107 -0.9100  1.4144
 6325WAT     H219495   0.064   0.755   2.312 -1.1515  0.2138  1.1502
 6326WAT      O19496   0.794   1.450   4.633  0.0121  0.8414 -0.1420
 6326WAT     H119497   0.726   1.414   4.576 -0.8786  0.0932  1.3216
 6326WAT     H219498   0.840   1.514   4.579 -0.5476 -0.0938 -1.7890
 6327WAT      O19499   7.135   6.122   3.904  0.0183  0.1015 -0.6733
 6327WAT     H119500   7.205   6.185   3.891  0.4235 -0.3002 -0.4522
 6327WAT     H219501   7.093   6.149   3.985 -1.0269  1.2148 -1.5492
 6328WAT      O19502   1.131   3.264   2.757  0.3620 -0.7998  0.0606
 6328WAT     H119503   1.079   3.294   2.682 -0.7937 -0.8837  0.7984
 6328WAT     H219504   1.157   3.175   2.733  2.4895  0.1560 -1.4677
 6329WAT      O19505   0.604   3.919   1.864 -0.0507 -0.1743 -0.3174
 6329WAT     H119506   0.573   4.009   1.871  1.4021  0.3237  0.0935
 6329WAT     H219507   0.535   3.865   1.902 -0.3943  0.8828  0.5787
 6330WAT      O19508   0.055   2.988   4.357 -0.4820 -0.8784  0.7273
 6330WAT     H119509   0.145   2.967   4.379 -0.7862 -2.7159  0.3737
 6330WAT     H219510   0.039   2.944   4.274 -1.8905 -1.1270  1.0907
 6331WAT      O19511   1.599   0.799   1.922 -0.1151  0.1212  0.5898
 6331WAT     H119512   1.664   0.748   1.970 -1.9421 -2.5213  0.4443
 6331WAT     H219513   1.579   0.747   1.845 -2.4889  0.7587  0.6955
 6332WAT      O19514   1.133   3.674   3.695 -0.1262 -0.6842 -0.3371
 6332WAT     H119515   1.228   3.680   3.709 -0.0237 -0.9590 -0.8551
 6332WAT     H219516   1.115   3.580   3.698 -0.6236 -0.5710  1.1881
 6333WAT      O19517   1.307   4.928   1.609 -0.0768 -0.8728 -0.4427
 6333WAT     H119518   1.274   4.939   1.520 -0.7999 -1.3613 -0.2429
 6333WAT     H219519   1.338   4.837   1.612 -1.5908 -1.3942  0.2795
 6334WAT      O19520   6.794   3.594   2.381 -0.5481 -0.0537  0.7437
 6334WAT     H119521   6.837   3.516   2.346  0.2945  0.6911  0.0822
 6334WAT     H219522   6.863   3.641   2.427 -0.9692  0.4795  0.8446
 6335WAT      O19523   2.207   0.811   4.003 -0.1449  0.4551  0.4606
 6335WAT     H119524   2.207   0.892   4.054 -1.0856 -1.3089  3.5231
 6335WAT     H219525   2.128   0.765   4.032 -0.1762 -1.1691 -1.9334
 6336WAT      O19526   1.979   4.623   3.072 -0.2230 -0.2292 -0.5847
 6336WAT     H119527   1.949   4.707   3.108 -0.4911 -0.2065 -0.8651
 6336WAT     H219528   1.972   4.634   2.977  3.1268  0.7566 -0.8560
 6337WAT      O19529   2.226   1.964   5.196  0.2441  0.6801 -0.2246
 6337WAT     H119530   2.293   2.031   5.180  0.7167  0.4446  0.6867
 6337WAT     H219531   2.253   1.923   5.279  0.8795 -1.7450 -1.5357
 6338WAT      O19532   7.003   1.122   4.227 -0.1080  0.2573 -0.1111
 6338WAT     H119533   7.024   1.157   4.314 -0.4133 -0.1072  0.1106
 6338WAT     H219534   7.038   1.187   4.167  1.2433 -0.0859  0.2533
 6339WAT      O19535   2.264   2.821   0.790 -0.5797 -0.9286  0.0171
 6339WAT     H119536   2.273   2.753   0.724 -1.3427  0.4776 -1.6272
 6339WAT     H219537   2.233   2.775   0.868  0.0413 -2.6013 -0.6855
 6340WAT      O19538   0.182   1.024   4.225 -0.3815 -0.0230  0.1389
 6340WAT     H119539   0.142   1.070   4.151  1.5738 -1.1909 -1.7536
 6340WAT     H219540   0.117   0.958   4.250 -1.5018  1.0656  0.2155
 6341WAT      O19541   1.625   0.055   1.936  0.0285  0.6478 -0.3344
 6341WAT     H119542   1.702   0.099   1.971  0.1963 -0.1691  0.3502
 6341WAT     H219543   1.640   0.053   1.841  1.2232 -0.1866 -0.1430
 6342WAT      O19544   1.967   4.993   5.072  0.4364 -0.4835 -0.1924
 6342WAT     H119545   1.961   4.963   5.162  0.0361  0.1509  0.0013
 6342WAT     H219546   1.876   5.010   5.046  0.6804  1.0904 -0.0942
 6343WAT      O19547   3.248   0.573   2.811  0.3358  0.9925  0.4266
 6343WAT     H119548   3.295   0.513   2.752  1.3308  2.6072 -0.5009
 6343WAT     H219549   3.193   0.625   2.753  1.1432  2.4482  0.9132
 6344WAT      O19550   6.044   1.356   4.904 -0.4250 -0.1253 -0.5212
 6344WAT     H119551   6.013   1.436   4.861  0.7066  0.2009 -0.7905
 6344WAT     H219552   5.994   1.286   4.862 -2.2790  0.4963  0.5369
 6345WAT      O19553   1.238   1.108   4.499 -0.7197 -0.4279 -0.3559
 6345WAT     H119554   1.158   1.140   4.458 -0.4986 -0.1462 -0.5669
 6345WAT     H219555   1.302   1.178   4.486 -0.8278 -0.0272  1.0410
 6346WAT      O19556   5.173   0.686   4.264 -0.3873  0.0794  0.2312
 6346WAT     H119557   5.130   0.603   4.246  1.8491 -1.7245  2.4772
 6346WAT     H219558   5.160   0.700   4.358 -1.5566  2.8882 -0.2333
 6347WAT      O19559   0.894   2.388   3.926  0.2946  0.6341  0.1098
 6347WAT     H119560   0.983   2.376   3.960 -0.4160  1.0517  2.2448
 6347WAT     H219561   0.882   2.483   3.926 -0.4963  0.5476  0.8461
 6348WAT      O19562   1.735   1.949   1.476 -0.7358 -0.5814 -0.5711
 6348WAT     H119563   1.702   2.017   1.535  0.9499 -0.8686  0.7720
 6348WAT     H219564   1.707   1.866   1.517  0.4501 -0.7804 -0.1289
 6349WAT      O19565   2.621   3.128   4.654  0.2946  0.1212  0.7518
 6349WAT     H119566   2.526   3.132   4.659  0.3846  2.0970  2.6213
 6349WAT     H219567   2.641   3.148   4.563 -1.0778 -0.4293  0.3082
 6350WAT      O19568   2.356   3.485   2.459  0.0167 -0.5303  0.1224
 6350WAT     H119569   2.382   3.577   2.466 -0.2387 -0.4587  0.1314
 6350WAT     H219570   2.296   3.482   2.384 -0.2648 -0.6226  0.3481
 6351WAT      O19571   1.864   1.835   2.978 -0.2401  0.1167 -0.8435
 6351WAT     H119572   1.834   1.760   2.926 -1.5345  0.4299 -0.6033
 6351WAT     H219573   1.784   1.866   3.021  0.5602  0.7083  0.2462
 6352WAT      O19574   7.396   2.397   4.001 -0.1328 -0.3211 -0.4041
 6352WAT     H119575   7.322   2.337   3.989 -0.6480  0.4478 -1.2735
 6352WAT     H219576   7.466   2.360   3.948 -0.1825 -0.5801 -0.2910
 6353WAT      O19577   0.788   1.268   3.320  0.0747 -0.3541 -0.1073
 6353WAT     H119578   0.881   1.275   3.299 -0.6122  0.3683 -3.4688
 6353WAT     H219579   0.762   1.357   3.345  0.0882 -0.3773 -0.0076
 6354WAT      O19580   5.338   2.272   4.027 -0.2859  0.1968  0.3336
 6354WAT     H119581   5.334   2.201   4.091  0.3830  0.1116  0.2849
 6354WAT     H219582   5.272   2.248   3.962  0.2992 -0.6610  0.0366
 6355WAT      O19583   2.731   3.447   4.619  0.0678 -0.5635 -0.1958
 6355WAT     H119584   2.791   3.384   4.580 -0.3524 -0.4230 -1.1098
 6355WAT     H219585   2.663   3.459   4.552  0.3389  1.1297 -0.2080
 6356WAT      O19586   1.679   3.082   0.469  0.2283 -0.1368 -0.8953
 6356WAT     H119587   1.668   3.024   0.394 -0.1488  0.4336 -1.2912
 6356WAT     H219588   1.773   3.087   0.483  0.2929 -0.3702 -1.2351
 6357WAT      O19589   2.284   2.379   3.085 -0.1568 -0.6944 -0.3219
 6357WAT     H119590   2.309   2.463   3.123  1.2956 -1.1475 -0.1969
 6357WAT     H219591   2.248   2.401   2.999 -1.3918  0.1684  0.3833
 6358WAT      O19592   5.956   5.963   2.552  0.3013 -0.0294  0.3510
 6358WAT     H119593   6.039   5.946   2.595  0.6552  0.3238 -0.1793
 6358WAT     H219594   5.974   5.952   2.458 -0.1910  0.2452  0.2158
 6359WAT      O19595   6.715   2.768   4.976  1.2000  0.6360 -0.4457
 6359WAT     H119596   6.810   2.765   4.980  1.1773 -1.8540 -0.6640
 6359WAT     H219597   6.685   2.703   5.039 -0.2009 -1.9975 -3.5581
 6360WAT      O19598   2.431   2.242   3.510  0.0692  0.0467 -0.1418
 6360WAT     H119599   2.471   2.156   3.503  0.8712  0.5468 -2.7318
 6360WAT     H219600   2.503   2.304   3.497 -0.5721  1.1167  1.1148
 6361WAT      O19601   0.401   0.873   3.166  0.0466  0.2315  0.5315
 6361WAT     H119602   0.337   0.904   3.103  1.1586  1.0703 -0.2333
 6361WAT     H219603   0.449   0.951   3.193  2.6371 -0.6433 -1.1244
 6362WAT      O19604   2.034   1.180   2.899  0.5868  0.4939  0.4667
 6362WAT     H119605   2.033   1.195   2.805  0.5091 -0.6732  0.2566
 6362WAT     H219606   2.109   1.121   2.912 -1.6901 -2.6917  0.5141
 6363WAT      O19607   1.231   1.994   4.094  0.3469  0.3676  0.5026
 6363WAT     H119608   1.190   2.044   4.024  0.4180  0.6563  0.6667
 6363WAT     H219609   1.187   2.023   4.174  1.5210  1.3987  0.8016
 6364WAT      O19610   1.417   2.097   4.703  0.0014  0.2986 -0.0666
 6364WAT     H119611   1.504   2.130   4.681  0.1780 -0.3432 -0.3372
 6364WAT     H219612   1.426   2.002   4.705 -0.4241  0.2581  1.0663
 6365WAT      O19613   2.764   1.991   3.356  0.4971 -0.7974 -0.0927
 6365WAT     H119614   2.689   2.001   3.415 -0.3368  0.1527 -1.2693
 6365WAT     H219615   2.818   1.924   3.398 -0.9787 -1.4790  0.8077
 6366WAT      O19616   0.850   0.055   1.609 -0.4488  0.3885  0.6673
 6366WAT     H119617   0.938   0.025   1.631 -0.3287  2.0632  2.8840
 6366WAT     H219618   0.793  -0.017   1.635  0.0131  0.8459  3.1631
 6367WAT      O19619   0.566   1.265   3.566  0.2177 -0.4386  0.6736
 6367WAT     H119620   0.614   1.347   3.584 -1.7745  0.9364  0.0245
 6367WAT     H219621   0.578   1.213   3.646  0.5363  0.9989  1.6034
 6368WAT      O19622   2.130   2.060   3.480  0.1355 -0.4064 -0.6567
 6368WAT     H119623   2.087   2.111   3.410 -0.6380  1.3157  0.9878
 6368WAT     H219624   2.074   1.983   3.490 -2.3202  1.4183  0.9110
 6369WAT      O19625   6.664   2.696   3.731  0.6303 -0.1592 -0.7130
 6369WAT     H119626   6.604   2.681   3.804  0.4425 -0.4424 -0.9249
 6369WAT     H219627   6.658   2.617   3.678  2.0741 -0.6918 -0.1222
 6370WAT      O19628   4.981   1.271   4.531  0.0461  0.0513  0.3867
 6370WAT     H119629   4.888   1.260   4.550 -0.5176  3.6500  0.4175
 6370WAT     H219630   5.025   1.243   4.612 -1.2119  0.7029  1.3348
 6371WAT      O19631   3.129   2.594   3.862  0.1660 -0.5428  0.0737
 6371WAT     H119632   3.192   2.547   3.917 -0.4523 -0.8907  0.4979
 6371WAT     H219633   3.054   2.535   3.856 -0.9704  0.6953  1.3057
 6372WAT      O19634   7.364   2.024   3.745  0.9087  0.3518 -0.6834
 6372WAT     H119635   7.398   2.011   3.657  0.7519  0.0915 -0.7030
 6372WAT     H219636   7.291   1.963   3.753  1.5579 -0.3574 -0.0201
 6373WAT      O19637   0.753   2.174   3.559 -0.6703  0.3629 -0.5622
 6373WAT     H119638   0.695   2.224   3.615 -0.4405  1.2435 -1.0989
 6373WAT     H219639   0.827   2.232   3.542 -0.2579 -0.2596 -0.9645
 6374WAT      O19640   0.820   1.562   2.157  0.5131  0.6879 -0.8272
 6374WAT     H119641   0.855   1.536   2.242  1.4567  3.8229 -0.1167
 6374WAT     H219642   0.884   1.530   2.094  0.2937 -0.8388 -0.3121
 6375WAT      O19643   6.470   1.501   3.112  0.4248  0.3427  0.3767
 6375WAT     H119644   6.534   1.539   3.172  1.2430 -0.2075 -0.1378
 6375WAT     H219645   6.466   1.409   3.136 -0.1280  0.3550  0.3528
 6376WAT      O19646   1.917   0.842   0.974  0.4753 -0.2783 -0.2112
 6376WAT     H119647   1.963   0.809   0.896 -1.5899 -1.0178 -1.1921
 6376WAT     H219648   1.843   0.891   0.939  0.3241  0.6438  1.3188
 6377WAT      O19649   0.501   4.915   2.614 -0.3288  0.3445  0.1108
 6377WAT     H119650   0.462   4.873   2.690 -1.0419  0.4937 -0.1668
 6377WAT     H219651   0.588   4.875   2.607 -0.1649  0.4810  1.1255
 6378WAT      O19652   0.008   2.042   4.029  0.0257 -0.1632  0.5781
 6378WAT     H119653  -0.067   2.002   4.072  0.7020 -2.0552  0.1426
 6378WAT     H219654  -0.018   2.051   3.937  0.0204 -0.0199  0.5941
 6379WAT      O19655   2.224   2.806   2.745  0.1982  0.2511  0.1900
 6379WAT     H119656   2.252   2.715   2.737  0.0054  0.2327 -0.3304
 6379WAT     H219657   2.298   2.851   2.786  0.2250 -0.1739  0.6130
 6380WAT      O19658   7.032   5.264   3.383 -0.1580 -0.5054 -0.2832
 6380WAT     H119659   7.031   5.269   3.287  1.8092  1.3215 -0.2903
 6380WAT     H219660   7.121   5.237   3.405 -0.4272 -0.3877  1.0429
 6381WAT      O19661   0.291   2.493   2.175  0.4950 -0.3870 -0.5238
 6381WAT     H119662   0.253   2.580   2.183  0.9315 -0.2380 -0.0037
 6381WAT     H219663   0.319   2.488   2.084 -2.4232 -1.2118 -1.4781
 6382WAT      O19664   0.760   1.010   4.717  0.1579  0.0372 -0.1972
 6382WAT     H119665   0.770   1.095   4.759  1.2249  0.4098 -1.1732
 6382WAT     H219666   0.727   1.030   4.629 -0.1791 -0.6013 -0.2236
 6383WAT      O19667   1.211   3.570   4.115  0.3320 -0.2859  0.0126
 6383WAT     H119668   1.192   3.637   4.180  1.1760  0.4888 -0.5031
 6383WAT     H219669   1.197   3.613   4.031  1.4053 -0.5624 -0.3347
 6384WAT      O19670   2.244   2.522   5.352 -0.2729 -0.2397 -0.1805
 6384WAT     H119671   2.273   2.431   5.346 -1.3890 -0.6582  0.4194
 6384WAT     H219672   2.150   2.518   5.332  0.0509  1.0810 -2.2787
 6385WAT      O19673   0.770   0.756   2.833  0.3899  0.2349 -0.3010
 6385WAT     H119674   0.862   0.761   2.807  0.3952 -0.2317 -0.3804
 6385WAT     H219675   0.760   0.668   2.870 -0.4554 -0.4300 -2.0149
 6386WAT      O19676   0.018   3.036   3.924 -0.0542 -0.1099 -0.1851
 6386WAT     H119677   0.039   2.988   3.844  1.3278 -0.9782  0.6544
 6386WAT     H219678   0.061   2.986   3.994  1.9545  2.6241  0.6885
 6387WAT      O19679   2.009   1.632   3.973  0.2761  0.2752  0.2811
 6387WAT     H119680   1.999   1.721   4.007  0.9124  0.1448  0.8161
 6387WAT     H219681   1.937   1.584   4.013 -0.5111  0.7020 -0.5759
 6388WAT      O19682   1.419   2.826   5.101 -0.3068  0.1104  0.2293
 6388WAT     H119683   1.327   2.807   5.117 -0.2398 -0.9643 -0.5986
 6388WAT     H219684   1.432   2.811   5.007  1.0051 -1.0773  0.5658
 6389WAT      O19685   0.706   2.844   3.953 -0.4049 -0.0707  0.5359
 6389WAT     H119686   0.657   2.814   4.030  0.6023 -0.4800  1.0286
 6389WAT     H219687   0.645   2.903   3.908 -1.4412 -0.7668  0.9866
 6390WAT      O19688   0.818   1.716   3.058 -0.0356  0.0212 -0.8289
 6390WAT     H119689   0.886   1.763   3.010  0.2885  0.3403 -0.0776
 6390WAT     H219690   0.842   1.623   3.049  2.2623  0.2132  1.8934
 6391WAT      O19691   7.384   0.868   3.716  0.3358  0.8015  0.5819
 6391WAT     H119692   7.418   0.956   3.697 -0.2140  0.4744 -2.3469
 6391WAT     H219693   7.369   0.829   3.630  3.4596 -3.3558  1.6002
 6392WAT      O19694   0.563   0.497   1.880 -0.1076  0.3142  0.1475
 6392WAT     H119695   0.628   0.430   1.900  0.3169  0.1629 -1.5876
 6392WAT     H219696   0.485   0.471   1.929  0.4901 -0.6633  0.5946
 6393WAT      O19697   0.768   3.064   3.566 -0.4701 -0.4530 -0.1537
 6393WAT     H119698   0.688   3.015   3.548  0.3003 -1.6165 -0.5382
 6393WAT     H219699   0.784   3.115   3.487  0.1665 -1.6851 -0.8656
 6394WAT      O19700   2.926   2.509   1.195 -0.0062  0.3153 -0.1585
 6394WAT     H119701   2.855   2.477   1.139  1.2211 -2.0033 -0.5079
 6394WAT     H219702   2.933   2.602   1.174 -2.4231  0.4561 -0.6390
 6395WAT      O19703   2.200   2.423   0.906  0.1018  0.0560  0.2061
 6395WAT     H119704   2.197   2.331   0.929 -1.5007  0.2643  0.9365
 6395WAT     H219705   2.160   2.427   0.819 -1.2261  0.2072  0.7953
 6396WAT      O19706   4.088   1.933   2.744  0.1348 -0.4748  0.1986
 6396WAT     H119707   4.175   1.937   2.704 -1.2265  0.7974 -2.9968
 6396WAT     H219708   4.043   1.865   2.695 -1.3854  0.5236  0.1632
 6397WAT      O19709   0.607   2.250   4.590  0.0547 -0.0566  0.4730
 6397WAT     H119710   0.536   2.252   4.654  1.3266  0.3980  1.9288
 6397WAT     H219711   0.629   2.342   4.575  0.1409 -0.1800 -0.1812
 6398WAT      O19712   1.229   0.595   1.472  0.5291 -0.5577  0.4583
 6398WAT     H119713   1.137   0.571   1.478  0.1641  0.7726  0.3230
 6398WAT     H219714   1.234   0.682   1.512  1.8003 -0.7837  0.8460
 6399WAT      O19715   5.672   2.553   2.744  0.3670 -0.5948 -0.0598
 6399WAT     H119716   5.589   2.591   2.772  0.7441 -0.5904  1.1207
 6399WAT     H219717   5.733   2.575   2.814  1.4564 -0.3214 -1.0636
 6400WAT      O19718   7.117   2.044   3.462  0.1566 -0.1535  0.8446
 6400WAT     H119719   7.188   2.098   3.498 -0.2905  0.1895  1.2311
 6400WAT     H219720   7.152   1.955   3.461  1.6778  0.3866 -1.7401
 6401WAT      O19721   1.158   1.399   1.485  0.4380  0.1274  0.3651
 6401WAT     H119722   1.156   1.411   1.580  2.1902  0.9803  0.3326
 6401WAT     H219723   1.248   1.373   1.466  0.1798  0.2156 -1.0932
 6402WAT      O19724   2.448   2.118   2.010 -0.2619  0.0704  0.5166
 6402WAT     H119725   2.436   2.025   1.988  1.3600 -0.3740  1.3123
 6402WAT     H219726   2.478   2.158   1.928 -5.1524  0.9750 -1.1803
 6403WAT      O19727   1.565   2.881   3.149  0.3909 -0.7000 -0.1551
 6403WAT     H119728   1.494   2.909   3.207  1.5457  0.1068  0.9237
 6403WAT     H219729   1.529   2.807   3.102 -1.2453 -0.1770  0.1993
 6404WAT      O19730   7.275   0.005   2.797  0.3685  0.5950 -0.6686
 6404WAT     H119731   7.252  -0.007   2.889 -0.5007  0.8156 -0.8518
 6404WAT     H219732   7.242   0.092   2.774  0.1614  0.3552 -1.3111
 6405WAT      O19733   2.234   1.588   3.669 -0.0333 -0.1787 -0.2765
 6405WAT     H119734   2.230   1.581   3.574 -0.0693 -0.0076 -0.2883
 6405WAT     H219735   2.145   1.570   3.699  0.2453 -1.4910 -0.1870
 6406WAT      O19736   0.054   3.684   4.842  0.1646  0.3461  0.9975
 6406WAT     H119737   0.145   3.712   4.832  0.5776 -1.0345  0.7510
 6406WAT     H219738   0.010   3.717   4.763  1.3992 -2.5339 -1.0767
 6407WAT      O19739   6.889   2.276   1.954 -0.0631 -0.1329 -0.4455
 6407WAT     H119740   6.802   2.311   1.936 -0.4671 -0.8674  0.0178
 6407WAT     H219741   6.885   2.186   1.921  0.5427 -0.1446 -0.4863
 6408WAT      O19742   1.403   3.594   4.384 -0.5382 -0.9219  0.6259
 6408WAT     H119743   1.453   3.666   4.345  0.0295 -1.4148  0.4381
 6408WAT     H219744   1.314   3.629   4.391 -0.0476  0.2120  1.5922
 6409WAT      O19745   1.620   3.285   1.495  0.1836 -0.2921 -0.0948
 6409WAT     H119746   1.688   3.349   1.517  1.8385 -1.5742 -1.2076
 6409WAT     H219747   1.587   3.254   1.580  0.8274  0.5326  0.4685
 6410WAT      O19748   0.653   3.216   1.731 -0.2122  0.2464  0.2590
 6410WAT     H119749   0.638   3.205   1.825 -0.4639 -0.9454  0.0937
 6410WAT     H219750   0.661   3.127   1.697  0.1380  0.6704 -0.8140
 6411WAT      O19751   5.703   2.606   3.012 -0.0803 -0.4423 -0.3381
 6411WAT     H119752   5.678   2.575   3.099  0.6063 -2.7577 -0.8952
 6411WAT     H219753   5.680   2.699   3.012 -0.7172 -0.5356  2.0645
 6412WAT      O19754   3.222   1.413   2.726  0.2673 -0.0948 -0.2636
 6412WAT     H119755   3.240   1.503   2.756  1.1832 -0.6101  0.7892
 6412WAT     H219756   3.150   1.384   2.782  0.4394 -0.2639 -0.1324
 6413WAT      O19757   1.256   5.098   4.450 -0.2051  0.2185  0.6140
 6413WAT     H119758   1.169   5.076   4.419  0.1728 -1.4335  0.6596
 6413WAT     H219759   1.306   5.117   4.370 -0.0249 -1.0758  0.4031
 6414WAT      O19760   1.474   1.572   2.936  0.6187  0.3800 -0.2126
 6414WAT     H119761   1.440   1.661   2.930  0.8419  0.4589 -0.3235
 6414WAT     H219762   1.427   1.524   2.868 -0.9833 -0.0809  1.1469
 6415WAT      O19763   1.031   1.794   2.922 -0.0542  0.1438  0.4659
 6415WAT     H119764   0.998   1.808   2.833  0.4454  0.0980  0.2724
 6415WAT     H219765   1.109   1.741   2.911 -0.5921 -0.7902  1.0205
 6416WAT      O19766   2.959   3.596   4.978 -0.2545 -0.1740 -0.7156
 6416WAT     H119767   2.883   3.548   4.945  0.6479 -1.9543 -0.3834
 6416WAT     H219768   3.014   3.609   4.900  0.3684 -1.4519 -0.5277
 6417WAT      O19769   2.763   4.159   4.346  0.3644 -0.7986  0.7431
 6417WAT     H119770   2.705   4.226   4.383 -0.3703 -2.5070  2.9384
 6417WAT     H219771   2.765   4.178   4.253 -1.5617  0.9573  0.9801
 6418WAT      O19772   0.540   1.097   3.031 -0.1822 -0.3385 -0.3153
 6418WAT     H119773   0.582   1.108   3.116 -0.6290 -1.6683  0.1078
 6418WAT     H219774   0.612   1.088   2.969  0.1477 -0.3261  0.0651
 6419WAT      O19775   1.127   0.588   2.393  0.3551 -0.6661 -0.3440
 6419WAT     H119776   1.167   0.672   2.369  1.8195 -0.7990  1.4500
 6419WAT     H219777   1.065   0.570   2.322  1.8018  0.7117 -2.0620
 6420WAT      O19778   0.943   0.622   4.574  0.5062  0.1960 -0.5310
 6420WAT     H119779   0.852   0.606   4.547  0.7816 -1.8679 -0.4132
 6420WAT     H219780   0.936   0.654   4.664 -0.0957 -0.2413 -0.4147
 6421WAT      O19781   2.327   2.347   4.743  0.1114 -0.0142  0.2697
 6421WAT     H119782   2.259   2.303   4.693  0.7935 -1.1564  0.3112
 6421WAT     H219783   2.282   2.383   4.819 -0.4177 -0.9424  0.4057
 6422WAT      O19784   3.131   2.100   2.411 -0.4028  0.2227  0.5844
 6422WAT     H119785   3.137   2.172   2.348  0.4165 -0.5601 -0.2687
 6422WAT     H219786   3.181   2.130   2.487 -0.9242  0.9490  0.6559
 6423WAT      O19787   5.653   2.945   4.677 -0.7641  0.0338  0.1868
 6423WAT     H119788   5.592   2.913   4.743 -3.3235  0.6841 -1.6790
 6423WAT     H219789   5.619   3.032   4.654 -1.4587 -1.0175 -3.5074
 6424WAT      O19790   5.655   1.387   4.644 -0.1504 -0.0024  0.5493
 6424WAT     H119791   5.674   1.473   4.604 -1.3054 -0.0966 -0.2671
 6424WAT     H219792   5.561   1.391   4.665 -0.3880 -1.3224 -0.1743
 6425WAT      O19793   5.313   0.766   3.993 -0.5060  0.2676 -0.0270
 6425WAT     H119794   5.299   0.828   4.064  0.2500 -0.5268  0.8457
 6425WAT     H219795   5.288   0.681   4.031  0.2986 -0.2210 -0.5734
 6426WAT      O19796   1.946   3.800   4.518 -0.0290 -0.3030  0.1959
 6426WAT     H119797   2.004   3.788   4.593  1.1491 -1.0273 -0.7851
 6426WAT     H219798   1.948   3.716   4.472 -0.3809  0.2524 -0.8695
 6427WAT      O19799   1.908   1.745   5.250  0.3936  0.0935  0.1068
 6427WAT     H119800   1.848   1.674   5.274  1.4441  0.3330  4.1729
 6427WAT     H219801   1.995   1.705   5.252  0.7448  0.5360 -2.3620
 6428WAT      O19802   0.996   2.835   5.688  0.0767 -0.2315 -0.1460
 6428WAT     H119803   0.986   2.930   5.698 -0.4191 -0.1570 -1.1397
 6428WAT     H219804   1.016   2.823   5.595  1.5478 -1.0087  0.2340
 6429WAT      O19805   0.408   1.949   5.018 -0.5191  0.3462 -0.2766
 6429WAT     H119806   0.349   1.880   5.047  1.3889 -0.9454  0.7214
 6429WAT     H219807   0.393   1.956   4.923 -0.4611 -1.7569 -0.4794
 6430WAT      O19808   2.127   3.797   3.842 -0.0314  0.2830  0.3246
 6430WAT     H119809   2.080   3.854   3.782  0.8926  0.4460 -0.2506
 6430WAT     H219810   2.068   3.722   3.854 -1.4276  1.4738  1.3840
 6431WAT      O19811   1.987   2.621   4.838 -0.6783 -0.0684 -0.6542
 6431WAT     H119812   1.925   2.662   4.898 -0.6116  0.4773 -0.9472
 6431WAT     H219813   1.957   2.647   4.751  0.9250  1.6854 -0.7627
 6432WAT      O19814   0.913   2.199   5.400  0.3679  0.3249 -0.5043
 6432WAT     H119815   0.862   2.236   5.471  0.9038  0.8060 -0.3590
 6432WAT     H219816   0.915   2.105   5.418  0.4669  0.4385  0.0973
 6433WAT      O19817   6.232   2.251   3.434 -0.2904 -0.0370 -0.0806
 6433WAT     H119818   6.145   2.210   3.429 -0.1812 -0.2020 -0.6883
 6433WAT     H219819   6.286   2.188   3.480 -0.2844 -0.2970 -0.4426
 6434WAT      O19820   6.564   1.885   2.625  0.5057  0.3083 -0.0839
 6434WAT     H119821   6.473   1.857   2.629  0.6198 -0.2433 -1.0514
 6434WAT     H219822   6.594   1.880   2.716 -0.4587  0.6358  0.2661
 6435WAT      O19823   0.574   2.135   5.143  0.1346 -0.0762  0.1840
 6435WAT     H119824   0.542   2.097   5.226  3.9870 -1.7299  1.1184
 6435WAT     H219825   0.528   2.085   5.075 -1.6911  0.0142  1.2670
 6436WAT      O19826   1.050   3.911   4.949 -0.1596  0.4115  0.1614
 6436WAT     H119827   0.999   3.981   4.990 -0.4082  0.6922 -0.6081
 6436WAT     H219828   1.103   3.956   4.884 -0.1898 -0.1019 -0.2197
 6437WAT      O19829   2.791   3.299   5.066  0.1054 -0.7864 -0.0828
 6437WAT     H119830   2.851   3.345   5.124  1.3356 -1.8984 -0.4144
 6437WAT     H219831   2.777   3.359   4.993  0.7358 -0.4731  0.0488
 6438WAT      O19832   1.098   3.741   4.589 -0.0717  0.2520  0.6022
 6438WAT     H119833   1.112   3.660   4.639  0.7900  0.2772  0.4276
 6438WAT     H219834   1.104   3.811   4.654 -0.0755  0.2162  0.6411
 6439WAT      O19835   7.013   0.817   2.286 -0.0013 -0.2802  0.1495
 6439WAT     H119836   7.073   0.791   2.356 -0.9009 -0.6463  0.7991
 6439WAT     H219837   7.069   0.861   2.222  0.8146  0.2090  1.1727
 6440WAT      O19838   0.733   2.957   4.545 -0.1599 -0.4492 -0.6380
 6440WAT     H119839   0.710   3.027   4.607  2.2487 -0.0193 -0.1200
 6440WAT     H219840   0.745   3.003   4.462 -0.0888 -0.4794 -0.6445
 6441WAT      O19841   0.557   6.017   3.028 -0.4535 -0.3820  0.2586
 6441WAT     H119842   0.528   6.108   3.020 -0.6916 -0.5068 -0.3661
 6441WAT     H219843   0.477   5.967   3.041 -0.2903 -0.4664  0.9567
 6442WAT      O19844   0.185   1.459   3.248 -0.4605  0.1909  0.5155
 6442WAT     H119845   0.250   1.514   3.203  0.3197 -1.1340 -0.0235
 6442WAT     H219846   0.238   1.397   3.298 -1.3058 -0.8874  0.0946
 6443WAT      O19847   0.514   2.515   2.334 -0.0331 -0.2484  0.3322
 6443WAT     H119848   0.451   2.483   2.270  0.6899 -1.1481  0.0545
 6443WAT     H219849   0.462   2.532   2.412 -0.6434 -0.8334  0.0638
 6444WAT      O19850   0.899   0.362   3.969  0.6030 -0.3151 -0.6687
 6444WAT     H119851   0.887   0.390   4.059 -0.3040 -1.4845 -0.3994
 6444WAT     H219852   0.967   0.420   3.934  0.6562  0.4272  0.6259
 6445WAT      O19853   1.555   4.216   5.235 -0.4089  0.2428 -0.0305
 6445WAT     H119854   1.460   4.226   5.224 -0.0711  3.2231 -1.0042
 6445WAT     H219855   1.579   4.278   5.303  0.9246 -0.1825 -0.0730
 6446WAT      O19856   2.262   2.258   1.486 -0.0016 -0.5625 -0.0935
 6446WAT     H119857   2.301   2.295   1.407  0.0771  1.4430  0.8235
 6446WAT     H219858   2.174   2.295   1.488  0.3154  0.1667  1.2165
 6447WAT      O19859   2.213   2.943   2.999  0.1426  0.4356 -0.4531
 6447WAT     H119860   2.228   3.035   2.976 -0.1307  0.2051 -1.6598
 6447WAT     H219861   2.300   2.908   3.017  0.3011  0.8106 -0.4772
 6448WAT      O19862   2.867   2.202   3.516 -0.5762 -0.3644 -0.7370
 6448WAT     H119863   2.853   2.130   3.454 -0.6835 -0.4409 -0.6246
 6448WAT     H219864   2.818   2.275   3.478  0.7495  0.0945 -1.6310
 6449WAT      O19865   2.565   4.424   3.987 -0.0522  0.0287  0.1322
 6449WAT     H119866   2.507   4.469   3.925 -0.3543  0.7217  0.8944
 6449WAT     H219867   2.551   4.331   3.970 -0.5521  0.2057 -0.4520
 6450WAT      O19868   1.919   2.557   3.430 -0.4671 -0.5999 -0.6814
 6450WAT     H119869   1.921   2.646   3.394  1.8596 -0.6726 -0.8455
 6450WAT     H219870   1.954   2.502   3.361  1.6454 -1.0956  0.7052
 6451WAT      O19871   3.078   2.139   2.884 -0.0411  0.3642 -0.2847
 6451WAT     H119872   3.028   2.142   2.966  0.7425 -1.7014  0.3171
 6451WAT     H219873   3.081   2.231   2.855 -0.0344  1.2152  2.1647
 6452WAT      O19874   0.400   1.791   2.904  0.0477  0.0387  0.3408
 6452WAT     H119875   0.312   1.754   2.907  0.4070 -0.7802  0.8769
 6452WAT     H219876   0.445   1.752   2.978  0.8508  0.4964  0.1006
 6453WAT      O19877   1.174   0.433   3.569 -0.1108  0.1774 -0.6537
 6453WAT     H119878   1.110   0.363   3.576 -0.6309  0.7372  0.6334
 6453WAT     H219879   1.129   0.504   3.524 -0.6617  0.8218  0.8544
 6454WAT      O19880   4.452   2.893   5.788 -0.5282  0.3651 -0.4914
 6454WAT     H119881   4.447   2.982   5.753 -1.3646 -0.5433 -2.9021
 6454WAT     H219882   4.361   2.865   5.796 -0.2872 -0.9321 -1.7540
 6455WAT      O19883   1.622   1.648   2.046  0.3730 -0.1798  0.2833
 6455WAT     H119884   1.648   1.685   2.130 -0.9557 -0.5399  0.8889
 6455WAT     H219885   1.569   1.716   2.005 -3.3247 -1.6871  2.0348
 6456WAT      O19886   0.838   1.867   2.747 -0.0316 -0.1979 -0.3228
 6456WAT     H119887   0.795   1.782   2.756  0.0884 -0.2285 -0.0307
 6456WAT     H219888   0.766   1.929   2.734 -0.1883 -0.2093  0.4504
 6457WAT      O19889   6.892   2.239   4.453 -0.8622 -0.0449 -0.2968
 6457WAT     H119890   6.986   2.256   4.461 -0.7682 -1.0585  1.4512
 6457WAT     H219891   6.851   2.324   4.461 -0.2298  0.0682  3.4357
 6458WAT      O19892   0.132   4.606   2.236  0.3048 -0.2419 -0.9483
 6458WAT     H119893   0.146   4.692   2.196  0.6775  0.1207 -0.0479
 6458WAT     H219894   0.096   4.624   2.322  1.6772 -0.9301 -0.2047
 6459WAT      O19895   6.292   5.834   2.239  0.0325  0.0550  0.1354
 6459WAT     H119896   6.293   5.799   2.328  0.2618  0.2113  0.1959
 6459WAT     H219897   6.357   5.784   2.192  0.2279  0.2715  0.1733
 6460WAT      O19898   1.922   0.435   2.647  0.6198  0.4620  0.5821
 6460WAT     H119899   1.906   0.340   2.644 -0.4236  0.6466 -0.7007
 6460WAT     H219900   2.000   0.447   2.594  0.0063  0.4295 -0.3585
 6461WAT      O19901   0.796   2.128   0.855  0.0675 -0.0051  0.0202
 6461WAT     H119902   0.770   2.083   0.935 -1.0203  1.1824  0.3693
 6461WAT     H219903   0.752   2.081   0.785 -0.0404 -0.2445  0.2494
 6462WAT      O19904   7.183   2.253   3.880  0.0691 -0.3024 -0.7104
 6462WAT     H119905   7.127   2.328   3.899  0.2957 -0.3775  0.3052
 6462WAT     H219906   7.174   2.240   3.785  0.1344  1.0737 -0.9274
 6463WAT      O19907   0.797   6.063   2.866  0.0495  0.2252 -0.1582
 6463WAT     H119908   0.724   6.037   2.923 -0.5405  1.2934 -0.4015
 6463WAT     H219909   0.755   6.107   2.792  0.9820  1.6836  0.1352
 6464WAT      O19910   2.011   2.311   4.397 -0.6888 -0.4635  0.5364
 6464WAT     H119911   1.966   2.386   4.356 -0.6533 -0.8821 -0.2959
 6464WAT     H219912   1.992   2.238   4.339  0.2657 -0.8517  0.6970
 6465WAT      O19913   2.323   4.489   4.359  0.6969  0.0715 -0.3033
 6465WAT     H119914   2.245   4.534   4.394 -0.3250 -0.0340 -2.2984
 6465WAT     H219915   2.298   4.463   4.270  2.2649 -1.9523 -0.2240
 6466WAT      O19916   7.235   2.831   3.600 -0.3862 -0.0511 -0.3621
 6466WAT     H119917   7.304   2.806   3.661 -1.4013 -1.9948  0.0753
 6466WAT     H219918   7.278   2.890   3.537  1.2174  0.1555  0.8806
 6467WAT      O19919   0.656   1.033   3.290 -0.3625  0.3222  0.6744
 6467WAT     H119920   0.703   1.106   3.331  0.8754 -0.0070 -0.0977
 6467WAT     H219921   0.722   0.989   3.236 -0.8320 -1.8791  1.7586
 6468WAT      O19922   2.268   1.001   5.057  0.2509  0.2734 -0.1244
 6468WAT     H119923   2.258   0.906   5.058  3.5910 -0.2125 -0.4936
 6468WAT     H219924   2.184   1.035   5.088 -1.1555 -2.7612 -0.3154
 6469WAT      O19925   2.012   2.967   4.829  0.1598  0.2684  0.2636
 6469WAT     H119926   1.963   2.921   4.761  0.7423  0.8065 -0.5381
 6469WAT     H219927   1.945   2.994   4.893 -0.1710 -1.8266  0.8674
 6470WAT      O19928   0.516   2.512   5.177  0.1666  0.0761  0.2271
 6470WAT     H119929   0.498   2.420   5.155 -2.4744  0.1086  1.7698
 6470WAT     H219930   0.582   2.507   5.246  1.1222 -0.5398 -0.6971
 6471WAT      O19931   6.646   2.818   5.703 -0.4149  0.3690  0.6137
 6471WAT     H119932   6.573   2.840   5.760 -0.7244 -1.7614  1.1412
 6471WAT     H219933   6.608   2.761   5.636  0.2529  1.5354 -0.8101
 6472WAT      O19934   1.029   4.612   2.199  0.3984  0.1383  0.4556
 6472WAT     H119935   1.055   4.574   2.283 -0.1986  0.4639  0.7892
 6472WAT     H219936   1.104   4.596   2.142  0.7536 -0.2107  1.0091
 6473WAT      O19937   0.204   2.308   5.652  0.1298 -0.0457 -0.2357
 6473WAT     H119938   0.237   2.228   5.611 -0.6519  0.3640 -1.7489
 6473WAT     H219939   0.188   2.367   5.579  1.0374  1.6522  0.8736
 6474WAT      O19940   2.605   2.219   4.894 -0.5324  0.4867  0.0912
 6474WAT     H119941   2.684   2.176   4.927 -0.2033  0.1315 -1.0907
 6474WAT     H219942   2.619   2.312   4.909 -0.0275  0.3937  0.1914
 6475WAT      O19943   2.190   3.799   4.135  0.7813 -0.5456  0.0761
 6475WAT     H119944   2.175   3.772   4.045  0.5210 -1.2332  0.3187
 6475WAT     H219945   2.277   3.840   4.133 -0.7203  2.8937 -1.2029
 6476WAT      O19946   6.246   0.971   4.088  0.2488  0.4281  0.5236
 6476WAT     H119947   6.322   0.912   4.094 -0.2326 -0.1845  0.6538
 6476WAT     H219948   6.170   0.913   4.094 -0.2346  1.0118  0.1244
 6477WAT      O19949   1.545   1.102   2.058 -0.8498 -0.7114 -0.1020
 6477WAT     H119950   1.528   1.179   2.113 -1.6834 -1.0899  0.1754
 6477WAT     H219951   1.635   1.077   2.079  0.2527  1.4883 -1.7856
 6478WAT      O19952   0.573   3.180   5.195 -0.1066  0.0548  0.1858
 6478WAT     H119953   0.513   3.132   5.138 -0.7193  1.2324 -0.1716
 6478WAT     H219954   0.527   3.186   5.279 -0.5845  1.0970 -0.1343
 6479WAT      O19955   2.457   2.411   3.771  0.4152  0.0002  0.0251
 6479WAT     H119956   2.365   2.429   3.750 -0.0327 -1.2371  0.7683
 6479WAT     H219957   2.463   2.315   3.766  1.3310 -0.0186  1.2771
 6480WAT      O19958   1.226   2.119   2.822  0.0834  0.1442 -0.5395
 6480WAT     H119959   1.144   2.106   2.870 -0.1247  1.0746 -0.6176
 6480WAT     H219960   1.219   2.208   2.787  0.4591 -0.3213 -1.8532
 6481WAT      O19961   0.920   1.944   1.615  0.2261 -0.1616 -0.2611
 6481WAT     H119962   0.912   1.909   1.526  1.4411  1.5907 -1.1408
 6481WAT     H219963   0.834   1.980   1.634 -0.1333 -0.8277 -0.6122
 6482WAT      O19964   7.331   1.161   2.132 -0.0335 -0.0597 -0.0423
 6482WAT     H119965   7.376   1.142   2.050  0.2255 -1.1870  0.3529
 6482WAT     H219966   7.377   1.238   2.167 -0.2373  0.5246 -1.0002
 6483WAT      O19967   0.937   1.685   0.856  0.6899 -0.1317 -0.0765
 6483WAT     H119968   0.901   1.673   0.768  0.2353 -0.8016  0.1934
 6483WAT     H219969   0.952   1.779   0.862  0.5022 -0.0455 -0.7841
 6484WAT      O19970   1.853   1.422   3.109  0.5675 -0.1840  0.2686
 6484WAT     H119971   1.840   1.462   3.023 -0.6586 -0.9415  0.0676
 6484WAT     H219972   1.947   1.428   3.125  0.8033  0.0434 -1.0801
 6485WAT      O19973   0.941   2.374   3.232 -0.4170  0.3798  0.3874
 6485WAT     H119974   0.929   2.457   3.277 -1.9798  1.3435 -1.6499
 6485WAT     H219975   0.852   2.342   3.215  0.0670  0.1021 -1.9750
 6486WAT      O19976   1.052   1.424   2.101 -0.0848 -0.4961  0.5766
 6486WAT     H119977   1.029   1.346   2.051  0.8926 -1.8437  2.1364
 6486WAT     H219978   1.128   1.398   2.153  0.6481  1.6888  0.7133
 6487WAT      O19979   7.123   1.625   2.464  0.1065  0.0670 -0.1948
 6487WAT     H119980   7.098   1.692   2.527 -1.2731 -1.1618  0.6309
 6487WAT     H219981   7.094   1.659   2.379  0.0946  0.8174  0.1034
 6488WAT      O19982   0.676   1.508   3.608 -0.0701 -0.3465  0.5769
 6488WAT     H119983   0.756   1.534   3.562  0.2701  0.7689  1.7464
 6488WAT     H219984   0.625   1.588   3.615 -0.9068 -0.8696  0.6184
 6489WAT      O19985   7.278   0.434   3.026 -0.5202 -0.1857 -0.0532
 6489WAT     H119986   7.321   0.488   2.959  0.8175 -0.5206  0.5022
 6489WAT     H219987   7.216   0.494   3.068 -0.1961  0.4760 -0.4923
 6490WAT      O19988   0.013   1.175   3.310 -0.9645 -0.0193 -0.2343
 6490WAT     H119989  -0.058   1.220   3.355  0.3171  2.3072 -0.4057
 6490WAT     H219990   0.009   1.207   3.220 -0.0234 -0.2470 -0.3660
 6491WAT      O19991   6.122   2.869   2.999 -0.5883 -0.6040 -0.3156
 6491WAT     H119992   6.102   2.786   3.042 -0.9527 -1.2288 -1.6670
 6491WAT     H219993   6.172   2.846   2.921  0.4893  0.5562 -0.0086
 6492WAT      O19994   0.882   0.949   3.751 -0.4857  0.3405  0.2238
 6492WAT     H119995   0.789   0.943   3.773 -0.2289 -1.2410  1.0633
 6492WAT     H219996   0.887   0.917   3.661 -0.7532  0.3385  0.2074
 6493WAT      O19997   1.846   4.879   4.439  0.0227 -0.1433 -0.2152
 6493WAT     H119998   1.874   4.800   4.484  0.6339  0.9080  1.3353
 6493WAT     H219999   1.927   4.917   4.404 -0.1811  0.1124 -0.4155
 6494WAT      O20000   2.532   2.033   1.018 -0.2818 -0.6896 -0.1301
 6494WAT     H120001   2.489   1.992   1.093 -2.0711 -1.8267 -1.6771
 6494WAT     H220002   2.553   1.959   0.960  0.0467  0.2342 -1.2190
 6495WAT      O20003   6.955   1.637   2.211  0.4664  0.1585  0.6886
 6495WAT     H120004   6.878   1.596   2.171  0.2399  0.8572  0.4062
 6495WAT     H220005   6.921   1.713   2.257  1.0304  0.6371  0.3223
 6496WAT      O20006   2.281   2.144   0.935 -0.4945 -0.9889  0.0729
 6496WAT     H120007   2.373   2.126   0.952 -0.5400  0.1230  1.6714
 6496WAT     H220008   2.234   2.099   1.005 -0.9633  0.4981  0.7632
 6497WAT      O20009   6.624   2.041   1.494  0.0058  0.3136 -0.0137
 6497WAT     H120010   6.709   2.043   1.450 -0.3796 -0.1404 -0.7964
 6497WAT     H220011   6.571   2.104   1.446 -0.4229 -0.1895 -0.2097
 6498WAT      O20012   0.657   3.613   3.620  0.3671 -0.0079  0.3597
 6498WAT     H120013   0.702   3.541   3.576 -1.8397 -1.2964  0.0422
 6498WAT     H220014   0.618   3.572   3.698 -0.0863  1.0576  0.7058
 6499WAT      O20015   0.521   0.824   2.295  0.0652 -0.0333 -0.1008
 6499WAT     H120016   0.446   0.821   2.236 -0.2230  0.0845  0.2488
 6499WAT     H220017   0.482   0.831   2.383  0.4324 -2.2592  0.2936
 6500WAT      O20018   7.209   1.961   2.632 -0.3826 -0.4457 -0.7092
 6500WAT     H120019   7.233   2.000   2.716  1.5145 -1.2799 -0.8109
 6500WAT     H220020   7.118   1.989   2.617 -0.0402  1.5333  0.5479
 6501WAT      O20021   1.498   1.510   0.769  0.1708 -0.6843 -0.1596
 6501WAT     H120022   1.409   1.520   0.737 -0.4563 -0.6368  1.5209
 6501WAT     H220023   1.507   1.416   0.785 -0.0006 -0.5419  0.8085
 6502WAT      O20024   1.837   1.749   1.096  0.0002 -0.7338 -1.0035
 6502WAT     H120025   1.836   1.838   1.059 -0.7177  0.6935  2.0818
 6502WAT     H220026   1.755   1.710   1.065 -0.4207  0.2579 -1.2000
 6503WAT      O20027   2.957   2.074   0.790  0.0674  0.2402 -0.1089
 6503WAT     H120028   2.923   2.048   0.704 -0.9585 -0.4619  0.4919
 6503WAT     H220029   3.049   2.048   0.789  0.2769  0.9493 -1.2720
 6504WAT      O20030   7.386   3.297   3.717 -0.1159 -0.4248 -0.4052
 6504WAT     H120031   7.416   3.286   3.626  2.2476 -0.7754  0.3466
 6504WAT     H220032   7.393   3.210   3.756 -2.2867 -0.5368 -0.1513
 6505WAT      O20033   5.605   4.292   3.675 -0.2722  0.4643 -0.4004
 6505WAT     H120034   5.576   4.216   3.625 -1.5579  0.2668  0.5810
 6505WAT     H220035   5.543   4.361   3.653  0.7521  1.1956 -1.1092
 6506WAT      O20036   1.304   3.266   0.676  0.2363  0.0898  0.6577
 6506WAT     H120037   1.321   3.340   0.734 -0.8835 -0.0219  1.1506
 6506WAT     H220038   1.369   3.275   0.606 -1.1483  2.7173 -0.3986
 6507WAT      O20039   0.444   0.120   2.987  0.2702 -0.0520  0.0551
 6507WAT     H120040   0.448   0.203   2.938 -1.7518 -0.5728 -1.1289
 6507WAT     H220041   0.351   0.110   3.008  0.6113 -1.6300  0.9027
 6508WAT      O20042   3.293   3.712   0.509 -0.4707 -0.0872  0.3396
 6508WAT     H120043   3.330   3.783   0.457 -1.0865 -0.2076 -0.2852
 6508WAT     H220044   3.259   3.650   0.443 -0.5402 -0.6316  0.8794
 6509WAT      O20045   1.602   2.535   2.781  0.2846 -0.3543 -0.6897
 6509WAT     H120046   1.551   2.485   2.845 -0.2934 -0.1163 -0.9569
 6509WAT     H220047   1.691   2.503   2.791  0.4236  0.4616  1.0186
 6510WAT      O20048   2.950   0.724   2.029 -0.1522 -0.4454 -0.3772
 6510WAT     H120049   2.960   0.632   2.004 -2.3720 -0.7917 -0.1280
 6510WAT     H220050   2.898   0.763   1.959 -1.6585 -0.0914  0.8861
 6511WAT      O20051   2.421   3.125   1.796 -0.2857 -0.0447  0.5867
 6511WAT     H120052   2.442   3.168   1.714 -2.1991 -1.2874 -0.6469
 6511WAT     H220053   2.356   3.182   1.838 -1.2782 -0.6479 -0.0703
 6512WAT      O20054   6.591   3.514   3.310  0.9421  0.1609 -0.1985
 6512WAT     H120055   6.589   3.418   3.317 -0.5587  0.1274 -0.7670
 6512WAT     H220056   6.519   3.544   3.366 -0.6442  0.7404 -2.3754
 6513WAT      O20057   1.489   2.961   2.110  0.1325 -0.3683  0.1195
 6513WAT     H120058   1.486   3.033   2.047  0.4308 -0.9100 -0.5283
 6513WAT     H220059   1.456   2.886   2.061  0.8568 -0.9097  0.4546
 6514WAT      O20060   1.565   0.670   0.445 -0.6236 -0.1840  0.0057
 6514WAT     H120061   1.625   0.640   0.513 -0.3969  0.9784  0.3387
 6514WAT     H220062   1.572   0.604   0.376  0.4442 -0.4831  0.3799
 6515WAT      O20063   2.244   1.524   1.956  0.5856 -0.3089 -0.2666
 6515WAT     H120064   2.206   1.611   1.971  1.0071 -0.4982  2.1879
 6515WAT     H220065   2.273   1.494   2.042  1.3312 -2.5064 -1.1966
 6516WAT      O20066   2.462   3.407   1.045 -0.2767 -0.0285 -0.2923
 6516WAT     H120067   2.552   3.417   1.075 -0.5997  0.5018  0.5277
 6516WAT     H220068   2.409   3.414   1.125 -0.9538 -1.8487 -0.5439
 6517WAT      O20069   1.822   2.611   2.489 -0.5314 -1.1856 -0.9126
 6517WAT     H120070   1.737   2.645   2.516 -0.6787 -1.7485 -0.6454
 6517WAT     H220071   1.801   2.534   2.436 -0.1881 -2.8212  1.1648
 6518WAT      O20072   0.948   2.004   0.284 -0.1175 -0.1329 -0.1886
 6518WAT     H120073   0.959   2.096   0.307  0.0523  0.2047 -1.4910
 6518WAT     H220074   0.960   2.002   0.189  1.3367 -1.7195 -0.0305
 6519WAT      O20075   1.977   1.763   1.663  0.1783 -0.6198 -0.2874
 6519WAT     H120076   1.949   1.708   1.737  0.5931 -0.6775 -0.1694
 6519WAT     H220077   1.941   1.719   1.586 -2.2490  0.6887  0.0149
 6520WAT      O20078   0.593   3.670   2.777 -0.3004  0.2495  0.3100
 6520WAT     H120079   0.630   3.756   2.797 -0.2122  0.2055  0.3378
 6520WAT     H220080   0.499   3.684   2.773 -0.2738  0.3848  0.1392
 6521WAT      O20081   2.379   2.593   2.642  0.4310 -0.0339 -0.4234
 6521WAT     H120082   2.312   2.555   2.585  0.7130 -2.7879  0.9210
 6521WAT     H220083   2.452   2.613   2.583  0.6524 -2.6334 -1.1577
 6522WAT      O20084   1.736   2.421   1.793 -0.6660  0.3731 -0.2974
 6522WAT     H120085   1.692   2.500   1.823 -0.0301  0.9636 -0.9073
 6522WAT     H220086   1.827   2.448   1.776 -0.6425 -0.2873 -1.3160
 6523WAT      O20087   1.720   2.207   1.985 -0.1420 -0.0340 -0.1663
 6523WAT     H120088   1.636   2.162   1.978 -0.6746  1.0232 -0.9475
 6523WAT     H220089   1.721   2.266   1.909  2.2208 -1.4931 -1.3567
 6524WAT      O20090   6.773   2.677   2.463  0.1769  0.6505 -0.2366
 6524WAT     H120091   6.698   2.734   2.474  0.1691  0.9269 -1.6161
 6524WAT     H220092   6.810   2.700   2.378 -0.9963 -2.6773 -1.8476
 6525WAT      O20093   0.255   2.633   2.681 -0.0083 -0.3538 -0.1159
 6525WAT     H120094   0.189   2.567   2.660 -0.0790 -0.5182  0.5848
 6525WAT     H220095   0.217   2.681   2.755 -1.0712  2.1142 -2.1250
 6526WAT      O20096   7.408   1.952   2.871 -0.6159  0.2268  0.4141
 6526WAT     H120097   7.358   2.034   2.870  0.5260  1.0132  2.0908
 6526WAT     H220098   7.500   1.981   2.866 -0.1830 -0.9286  1.3624
 6527WAT      O20099   1.073   3.256   3.431  0.3208  0.0792  0.3395
 6527WAT     H120100   1.161   3.288   3.450  0.0138  0.7111  0.7204
 6527WAT     H220101   1.035   3.322   3.373  0.3984 -0.6323 -0.5508
 6528WAT      O20102   0.359   2.793   2.473  0.1176  0.1025  0.1169
 6528WAT     H120103   0.342   2.725   2.538 -1.5657 -0.8425 -1.2239
 6528WAT     H220104   0.358   2.874   2.523 -0.8166 -0.6157  1.3446
 6529WAT      O20105   2.363   3.010   2.398 -0.1141  0.4191 -0.4758
 6529WAT     H120106   2.407   2.973   2.474  0.8446  0.6239 -0.9223
 6529WAT     H220107   2.324   2.935   2.354  1.1636  0.0122 -0.9574
 6530WAT      O20108   7.363   3.737   2.553 -0.2729  0.8953 -0.3944
 6530WAT     H120109   7.285   3.789   2.531 -0.3304  0.5095 -1.1363
 6530WAT     H220110   7.433   3.802   2.562 -0.4536  1.1494 -0.7961
 6531WAT      O20111   6.949   2.956   4.091  0.7709 -0.0526  0.4452
 6531WAT     H120112   7.042   2.976   4.082  0.9130 -0.6165  0.6212
 6531WAT     H220113   6.930   2.972   4.184  0.8704 -0.6511  0.5731
 6532WAT      O20114   6.998   3.298   1.808  0.3342  0.2749 -0.4153
 6532WAT     H120115   6.988   3.393   1.821  2.8535  0.4005  1.4921
 6532WAT     H220116   7.065   3.291   1.740  0.7233 -0.0812 -0.0037
 6533WAT      O20117   1.656   0.249   0.698  0.5044 -0.1000  0.2848
 6533WAT     H120118   1.623   0.302   0.770 -0.1307  0.1862 -0.2108
 6533WAT     H220119   1.581   0.197   0.670  0.3276  0.8907 -1.1597
 6534WAT      O20120   7.279   1.932   1.841 -0.4532 -0.4624  0.0930
 6534WAT     H120121   7.293   1.920   1.747 -0.7625  0.7008 -0.1204
 6534WAT     H220122   7.342   1.874   1.883  0.5717 -0.0333 -0.8333
 6535WAT      O20123   2.060   4.478   3.489 -0.2704 -0.6377 -0.4360
 6535WAT     H120124   2.059   4.462   3.583 -0.0534  0.4303 -0.2389
 6535WAT     H220125   2.056   4.573   3.481  0.1829 -0.6936 -1.4972
 6536WAT      O20126   0.840   4.344   4.396 -0.0027 -0.1255 -0.0418
 6536WAT     H120127   0.865   4.361   4.305 -0.3204 -0.6714 -0.2361
 6536WAT     H220128   0.873   4.419   4.444 -2.2453  1.5872 -0.9960
 6537WAT      O20129   0.879   2.818   0.835  0.5081 -0.0398 -0.0088
 6537WAT     H120130   0.788   2.794   0.817  1.3492 -2.9487 -0.9250
 6537WAT     H220131   0.913   2.850   0.752  1.1959 -2.3269 -0.6888
 6538WAT      O20132   1.047   1.285   1.132 -0.3634  0.0929 -0.1171
 6538WAT     H120133   1.122   1.342   1.143 -0.9484  0.5929  1.5452
 6538WAT     H220134   0.975   1.343   1.108 -0.4676 -0.2582 -0.7022
 6539WAT      O20135   1.267   1.701   2.595  1.1656 -0.1846  0.1477
 6539WAT     H120136   1.258   1.619   2.546  2.2791 -0.1856 -0.0864
 6539WAT     H220137   1.193   1.754   2.566 -0.3761 -1.5769  1.3195
 6540WAT      O20138   2.412   2.033   1.500 -0.2618  0.2674  0.0418
 6540WAT     H120139   2.345   1.966   1.487  0.1605  0.3321 -3.4784
 6540WAT     H220140   2.384   2.106   1.444  1.4494  1.3101  0.4598
 6541WAT      O20141   1.153   2.144   3.484  0.3779 -0.4171 -0.4396
 6541WAT     H120142   1.200   2.223   3.459 -0.0946 -0.0553 -0.1872
 6541WAT     H220143   1.208   2.103   3.551  1.4323 -1.1654 -1.7199
 6542WAT      O20144   0.163   2.274   0.638 -0.0550  0.2997 -0.0679
 6542WAT     H120145   0.225   2.281   0.711 -0.3724 -0.8047  0.3297
 6542WAT     H220146   0.213   2.231   0.568  1.0099  3.5133 -1.4530
 6543WAT      O20147   1.694   2.402   2.348  0.1124 -0.0538 -0.0069
 6543WAT     H120148   1.688   2.318   2.394  0.7800 -0.0816  0.0435
 6543WAT     H220149   1.701   2.378   2.255 -1.2893  0.0045 -0.1405
 6544WAT      O20150   5.860   2.047   4.782  0.1704 -0.0592  0.4895
 6544WAT     H120151   5.914   2.121   4.810 -0.9715  1.1183 -0.3057
 6544WAT     H220152   5.774   2.085   4.765  0.0572 -1.1859 -1.8912
 6545WAT      O20153   1.803   5.550   0.881  0.4457  0.1452  0.3357
 6545WAT     H120154   1.857   5.609   0.829  0.1234 -1.0143 -1.3954
 6545WAT     H220155   1.858   5.527   0.955  0.9906  1.7090  0.4686
 6546WAT      O20156   2.805   1.094   3.742  0.4108 -0.0430  0.5718
 6546WAT     H120157   2.874   1.028   3.753  0.9899  0.0413 -1.9421
 6546WAT     H220158   2.734   1.047   3.697 -0.0893  0.5254  0.7513
 6547WAT      O20159   2.809   0.305   2.484 -0.3986 -0.0160 -0.3366
 6547WAT     H120160   2.741   0.315   2.551 -0.8372 -0.5633 -0.6850
 6547WAT     H220161   2.786   0.223   2.440  1.9663 -1.6577  1.2304
 6548WAT      O20162   0.828   3.614   2.613  0.1217  0.4039 -0.1888
 6548WAT     H120163   0.778   3.685   2.654 -1.2545 -0.4168 -0.3730
 6548WAT     H220164   0.769   3.539   2.616  1.7811 -0.9286  0.5611
 6549WAT      O20165   2.175   5.564   1.732 -0.4620 -0.3673 -0.4264
 6549WAT     H120166   2.206   5.573   1.642  2.0758 -0.9194  0.3217
 6549WAT     H220167   2.220   5.486   1.765 -1.3980 -0.2178  1.3060
 6550WAT      O20168   2.753   1.846   1.961  0.6599  0.5150  0.4561
 6550WAT     H120169   2.775   1.928   2.005  0.4290  1.5038 -1.1857
 6550WAT     H220170   2.680   1.870   1.903 -1.1697 -1.4410  1.8075
 6551WAT      O20171   2.419   3.955   4.146 -0.4225  0.2753 -0.2287
 6551WAT     H120172   2.416   4.029   4.085  2.4937  1.1709  0.5802
 6551WAT     H220173   2.436   3.994   4.231  2.4317 -1.2870  0.0474
 6552WAT      O20174   6.475   5.731   2.075 -0.1353  0.3998  0.3417
 6552WAT     H120175   6.489   5.814   2.029  2.3583 -0.2173 -0.1910
 6552WAT     H220176   6.444   5.671   2.007  3.1291 -0.3965 -0.6228
 6553WAT      O20177   1.043   1.858   2.553 -0.8707 -0.5495  0.7601
 6553WAT     H120178   0.992   1.891   2.626 -0.3014  0.9981  0.4927
 6553WAT     H220179   0.978   1.835   2.486 -1.2608  1.1528  0.5198
 6554WAT      O20180   7.225   1.326   3.392  0.7011  0.1189 -0.1705
 6554WAT     H120181   7.247   1.383   3.466  1.2791  1.2726 -1.2026
 6554WAT     H220182   7.164   1.378   3.339 -0.8244 -1.2326  0.1842
 6555WAT      O20183   3.478   1.136   0.578  0.3969  0.0093 -0.3649
 6555WAT     H120184   3.417   1.078   0.532 -0.9114  0.3351  0.8821
 6555WAT     H220185   3.537   1.077   0.626  0.8081 -0.3032 -1.2418
 6556WAT      O20186   0.813   3.565   2.351 -0.3326 -0.0913  0.3152
 6556WAT     H120187   0.739   3.626   2.356  0.1751  0.4628  1.2100
 6556WAT     H220188   0.874   3.595   2.418  1.8157  0.9112 -1.9192
 6557WAT      O20189   1.421   1.805   2.195  0.6755 -0.3111 -0.1066
 6557WAT     H120190   1.428   1.817   2.101 -0.2494  2.1660  0.0627
 6557WAT     H220191   1.342   1.753   2.207 -0.2834  0.9767 -0.6573
 6558WAT      O20192   1.104   2.858   1.892 -0.2482  0.7403 -0.1392
 6558WAT     H120193   1.155   2.848   1.812 -0.7855 -0.0351 -0.3957
 6558WAT     H220194   1.139   2.937   1.933 -0.8244  1.9178 -1.7949
 6559WAT      O20195   1.614   1.375   1.398  0.2085 -0.0194  0.3686
 6559WAT     H120196   1.593   1.464   1.372  0.8156 -0.1845 -0.7476
 6559WAT     H220197   1.563   1.360   1.477 -0.7229  0.9465 -0.0336
 6560WAT      O20198   1.075   2.821   0.601 -0.1050 -0.3219  0.1648
 6560WAT     H120199   1.155   2.843   0.649 -0.1422  0.0752  0.0522
 6560WAT     H220200   1.081   2.727   0.585  1.0624 -0.0624 -1.1358
 6561WAT      O20201   1.506   1.040   3.574  0.0129 -0.5149 -0.1733
 6561WAT     H120202   1.563   1.114   3.549  1.0966 -1.1081  0.4707
 6561WAT     H220203   1.473   1.063   3.660 -0.5202 -0.3014 -0.4280
 6562WAT      O20204   7.115   3.235   2.429  0.8358 -0.7110  0.3447
 6562WAT     H120205   7.168   3.283   2.493  0.3037 -1.2629  1.2347
 6562WAT     H220206   7.060   3.177   2.483  0.3188 -1.1402 -0.6185
 6563WAT      O20207   0.738   2.960   1.952 -0.4050  0.3302  0.2136
 6563WAT     H120208   0.644   2.949   1.962 -0.7627  1.5239 -1.4357
 6563WAT     H220209   0.769   2.981   2.040 -1.6297 -0.2650  0.8115
 6564WAT      O20210   0.321   4.167   3.368  0.5170 -0.3223  0.2249
 6564WAT     H120211   0.324   4.109   3.444 -1.6140  1.4239  1.7474
 6564WAT     H220212   0.241   4.142   3.321 -0.6238  1.5036  1.0940
 6565WAT      O20213   6.025   2.302   0.798  0.0446 -0.0388  0.5270
 6565WAT     H120214   6.062   2.282   0.884  0.4547 -0.0296  0.3588
 6565WAT     H220215   5.949   2.244   0.790 -0.3485  0.3875  1.1377
 6566WAT      O20216   2.245   2.320   1.199  0.1814 -0.3970  0.0020
 6566WAT     H120217   2.185   2.366   1.140  0.6855  0.4481  0.1351
 6566WAT     H220218   2.331   2.359   1.180  0.4537 -0.5843  0.8239
 6567WAT      O20219   1.132   1.486   5.066  0.1135 -0.3239 -0.0725
 6567WAT     H120220   1.213   1.449   5.030 -0.5086  0.1367 -2.0694
 6567WAT     H220221   1.072   1.490   4.991 -1.9122 -1.0114  1.4339
 6568WAT      O20222   1.027   1.128   2.738 -0.1158 -0.0634  0.1392
 6568WAT     H120223   1.063   1.131   2.826 -0.9487  1.3122  0.4658
 6568WAT     H220224   1.010   1.035   2.722 -1.6877 -0.1824  2.1525
 6569WAT      O20225   0.569   2.133   0.102 -0.1118 -0.5049 -0.0613
 6569WAT     H120226   0.626   2.208   0.087 -0.6489 -0.3371 -1.4584
 6569WAT     H220227   0.561   2.092   0.015  0.3152 -2.2940  0.6877
 6570WAT      O20228   0.870   2.118   3.885  0.0739 -0.3009 -0.2368
 6570WAT     H120229   0.947   2.077   3.846  0.4230 -0.5678  0.6978
 6570WAT     H220230   0.897   2.208   3.903  0.3051 -0.4887  0.4125
 6571WAT      O20231   7.039   2.012   1.899 -0.1087  0.8959  0.2633
 6571WAT     H120232   7.005   2.000   1.811  0.5534 -0.6421  0.2002
 6571WAT     H220233   7.134   2.004   1.890 -0.0934 -0.3541  1.2490
 6572WAT      O20234   0.613   2.003   2.966  0.6476 -0.3417  0.3316
 6572WAT     H120235   0.623   2.042   2.880 -1.4155  2.1213  1.0598
 6572WAT     H220236   0.533   1.950   2.959 -0.3738  1.0480  1.0351
 6573WAT      O20237   6.270   1.245   1.817  0.5796  0.4772 -0.2040
 6573WAT     H120238   6.221   1.244   1.735 -1.5087 -0.6343  0.9892
 6573WAT     H220239   6.316   1.161   1.819  0.1559  0.2481  0.0221
 6574WAT      O20240   6.983   3.766   2.689 -0.2279  0.0706  0.4707
 6574WAT     H120241   7.055   3.814   2.648 -0.0322 -0.4356  0.2044
 6574WAT     H220242   7.012   3.675   2.687  0.0282  0.0871  2.2411
 6575WAT      O20243   0.734   1.973   1.929  0.0287  0.1713  0.2617
 6575WAT     H120244   0.700   2.005   1.845 -1.0665  0.4276  0.7909
 6575WAT     H220245   0.683   1.894   1.946  0.3019  0.0784  0.6561
 6576WAT      O20246   1.812   2.634   2.132 -0.2659 -0.4158 -0.1186
 6576WAT     H120247   1.853   2.549   2.116  0.7522 -0.0289  0.3606
 6576WAT     H220248   1.849   2.664   2.215 -1.5385 -0.0452  0.3398
 6577WAT      O20249   2.779   3.069   0.530  0.2467 -0.0637  0.1764
 6577WAT     H120250   2.772   3.096   0.622 -0.0111 -0.8231  0.3849
 6577WAT     H220251   2.873   3.073   0.511  0.1498  1.7676 -0.0512
 6578WAT      O20252   0.292   1.759   4.080  0.3120 -0.2378 -0.4539
 6578WAT     H120253   0.205   1.781   4.046  0.4981  0.5243 -0.4769
 6578WAT     H220254   0.344   1.738   4.002  0.3276 -0.0071 -0.5076
 6579WAT      O20255   1.067   0.059   2.288  0.2791  0.0417 -0.0601
 6579WAT     H120256   0.980   0.089   2.313  0.1717  1.4457 -1.9095
 6579WAT     H220257   1.051  -0.016   2.230  0.2382  0.8381 -1.0998
 6580WAT      O20258   3.012   1.424   2.351  0.4303  0.5597  0.5730
 6580WAT     H120259   2.986   1.460   2.436  0.7266 -0.0716  0.9461
 6580WAT     H220260   3.038   1.334   2.371  1.3567  0.6749 -0.0437
 6581WAT      O20261   1.789   5.057   2.016 -0.2694 -0.9248 -0.3639
 6581WAT     H120262   1.799   5.077   2.109 -1.6463 -3.4075  0.4296
 6581WAT     H220263   1.836   4.974   2.004 -0.6519 -0.9717 -1.7259
 6582WAT      O20264   1.412   1.124   2.870 -0.4708  0.4654  0.5250
 6582WAT     H120265   1.457   1.090   2.793 -1.1187 -2.2190  1.2212
 6582WAT     H220266   1.461   1.088   2.944 -1.1460  1.1713  1.3371
 6583WAT      O20267   6.193   5.694   1.688  0.5028 -0.0835 -0.5291
 6583WAT     H120268   6.142   5.666   1.612  3.6471 -4.3073 -1.4570
 6583WAT     H220269   6.238   5.773   1.658 -2.2692  1.4452 -1.0031
 6584WAT      O20270   0.946   2.213   2.526  0.1855 -0.6848  0.2392
 6584WAT     H120271   1.004   2.137   2.530  1.2807  0.0025 -1.4847
 6584WAT     H220272   0.930   2.225   2.432 -0.4223  0.8773  0.5246
 6585WAT      O20273   0.403   1.313   3.340 -0.3563 -0.6733 -0.0203
 6585WAT     H120274   0.464   1.311   3.414  0.1515 -1.4216 -0.4432
 6585WAT     H220275   0.362   1.226   3.341 -1.4686 -0.1624  0.2908
 6586WAT      O20276   3.470   2.738   3.098  0.0388 -0.0744 -0.4968
 6586WAT     H120277   3.518   2.728   3.016  2.4868 -2.3229  1.0729
 6586WAT     H220278   3.440   2.650   3.120 -2.1388  0.7686  0.2119
 6587WAT      O20279   0.573   1.483   4.155  0.1975 -0.8492 -0.2116
 6587WAT     H120280   0.579   1.463   4.062  2.1495  0.5770 -0.4543
 6587WAT     H220281   0.479   1.491   4.172 -0.2601 -2.4713 -1.7261
 6588WAT      O20282   0.778   2.824   1.400  0.0273  0.1837 -0.2243
 6588WAT     H120283   0.851   2.885   1.410 -2.1250  3.0481 -0.6843
 6588WAT     H220284   0.754   2.831   1.307 -1.4581  0.1488  0.1386
 6589WAT      O20285   7.394   1.768   2.631 -0.2436 -0.2507 -0.0557
 6589WAT     H120286   7.401   1.797   2.722  1.7250 -0.6526 -0.0455
 6589WAT     H220287   7.344   1.838   2.588  1.7637  1.6956  0.6202
 6590WAT      O20288   0.674   5.295   2.390 -0.3266 -0.2062  0.5214
 6590WAT     H120289   0.646   5.381   2.360  0.8246 -0.6077 -2.0170
 6590WAT     H220290   0.598   5.259   2.435 -0.9244  1.9789  1.3889
 6591WAT      O20291   1.596   0.283   1.131  0.1555 -0.3859 -0.3322
 6591WAT     H120292   1.680   0.284   1.176 -1.2674  0.1371  2.5010
 6591WAT     H220293   1.537   0.237   1.190 -1.6308 -0.5723 -2.1460
 6592WAT      O20294   5.045   2.697   2.424  0.1851  0.2130 -0.2793
 6592WAT     H120295   4.971   2.669   2.370 -0.4939  0.8088  0.3271
 6592WAT     H220296   5.055   2.628   2.490  0.0071  0.2584 -0.2050
 6593WAT      O20297   1.071   2.256   0.078  0.7085  0.3272 -0.6967
 6593WAT     H120298   1.072   2.172   0.032  1.6405  0.7169 -1.4217
 6593WAT     H220299   1.149   2.301   0.047  0.7944  1.0376  0.4948
 6594WAT      O20300   1.688   5.938   1.569  0.4995  0.3475  0.6736
 6594WAT     H120301   1.630   5.863   1.555  1.2413 -0.1867  0.3677
 6594WAT     H220302   1.746   5.937   1.493  0.3513  1.3936  0.5408
 6595WAT      O20303   0.904   1.523   1.702  0.1522 -0.3709 -0.4998
 6595WAT     H120304   0.973   1.553   1.642  1.8818 -2.0214  0.5559
 6595WAT     H220305   0.934   1.437   1.732 -1.2909 -0.1801  1.7234
 6596WAT      O20306   0.195   2.758   2.225  0.4376  0.1819  0.0397
 6596WAT     H120307   0.120   2.711   2.262  0.8100 -2.0264 -1.7870
 6596WAT     H220308   0.269   2.734   2.280  0.4847 -0.8119 -0.4417
 6597WAT      O20309   0.659   1.958   0.660  0.1620 -0.2136 -0.1397
 6597WAT     H120310   0.740   1.928   0.621 -0.9212 -0.2173 -2.5760
 6597WAT     H220311   0.598   1.885   0.648 -0.5930  0.3254  0.2993
 6598WAT      O20312   2.659   1.561   2.785  0.4792 -0.9711 -1.0137
 6598WAT     H120313   2.680   1.607   2.703  0.6492  1.1015  0.1245
 6598WAT     H220314   2.729   1.585   2.845 -1.0768 -0.1422  0.5604
 6599WAT      O20315   2.558   1.996   3.548 -1.1642  0.0932 -0.5409
 6599WAT     H120316   2.482   1.940   3.559 -0.4501 -0.6187  1.3041
 6599WAT     H220317   2.595   2.003   3.637 -0.0792  1.8330 -1.0747
 6600WAT      O20318   0.613   1.294   1.589 -0.5727  0.1572 -0.5321
 6600WAT     H120319   0.704   1.280   1.614 -0.5860 -0.3223 -0.7402
 6600WAT     H220320   0.567   1.218   1.624 -1.1660  1.1286  0.9302
 6601WAT      O20321   0.360   3.018   2.611 -0.4408 -0.2151 -0.4795
 6601WAT     H120322   0.431   3.082   2.613 -2.0919  1.7449  2.0009
 6601WAT     H220323   0.281   3.070   2.603 -1.8593 -1.8896  1.4548
 6602WAT      O20324   0.353   2.108   3.633 -0.2082 -0.1866  0.3009
 6602WAT     H120325   0.447   2.111   3.649  0.2365  1.5939 -2.1216
 6602WAT     H220326   0.316   2.169   3.697  0.6508  1.3043 -0.5699
 6603WAT      O20327   7.409   1.663   3.306 -0.3164 -0.6067 -0.3184
 6603WAT     H120328   7.387   1.701   3.221  0.4640  1.2110  0.2592
 6603WAT     H220329   7.476   1.597   3.286 -0.6336 -0.6827 -1.1733
 6604WAT      O20330   2.233   3.295   1.929 -0.1062  0.4111 -0.0581
 6604WAT     H120331   2.145   3.321   1.958 -0.1961  1.4425 -1.2235
 6604WAT     H220332   2.292   3.336   1.992 -0.4368 -0.3413  0.7704
 6605WAT      O20333   7.407   3.111   1.773 -0.0595  0.5463 -0.1704
 6605WAT     H120334   7.359   3.193   1.761 -0.6567  0.1955 -0.2115
 6605WAT     H220335   7.373   3.074   1.854  0.8006  0.7346  0.2897
 6606WAT      O20336   7.276   0.695   2.639 -0.2842  0.2370  0.4950
 6606WAT     H120337   7.309   0.696   2.549 -1.8358  1.6310 -0.1257
 6606WAT     H220338   7.298   0.782   2.674 -0.0749 -0.1377  1.3167
 6607WAT      O20339   1.039   1.234   2.487 -0.3396 -0.1411  0.5547
 6607WAT     H120340   0.950   1.238   2.451 -0.4546 -1.3562  0.6628
 6607WAT     H220341   1.026   1.203   2.577  0.2251 -0.9815  0.3604
 6608WAT      O20342   0.641   3.078   2.689  0.7838 -0.2477 -0.7192
 6608WAT     H120343   0.599   3.008   2.741  0.9981 -1.2006 -1.7873
 6608WAT     H220344   0.721   3.038   2.656  1.6873  1.0145 -0.1202
 6609WAT      O20345   6.616   4.460   2.497 -0.5878  0.4323  0.2147
 6609WAT     H120346   6.592   4.513   2.421  0.3516 -1.0859 -1.2149
 6609WAT     H220347   6.648   4.523   2.561  0.3996  1.6341 -1.3751
 6610WAT      O20348   1.827   1.040   3.666  0.3630  0.2153  0.4576
 6610WAT     H120349   1.844   1.123   3.620  2.6575 -0.1852  0.4516
 6610WAT     H220350   1.862   0.973   3.607  0.4329 -0.5823  1.3836
 6611WAT      O20351   7.152   1.870   2.279  0.2387 -0.0120 -0.4735
 6611WAT     H120352   7.089   1.858   2.350 -1.1667 -1.6685 -1.9146
 6611WAT     H220353   7.109   1.930   2.218  0.4178 -0.4493 -1.0409
 6612WAT      O20354   1.645   4.105   2.884 -0.2252  0.1563  0.0675
 6612WAT     H120355   1.556   4.131   2.908  0.1907  0.2398  1.5845
 6612WAT     H220356   1.633   4.039   2.816 -1.4055  0.9120 -0.5026
 6613WAT      O20357   6.488   2.766   4.529  0.3273  0.0085 -0.5356
 6613WAT     H120358   6.521   2.839   4.581 -1.6058  0.0673  0.7038
 6613WAT     H220359   6.532   2.689   4.566  0.7019  0.2991 -0.3680
 6614WAT      O20360   7.063   1.764   2.876  0.5429 -0.2539 -0.4106
 6614WAT     H120361   7.034   1.830   2.813 -1.0936 -0.9928 -0.4859
 6614WAT     H220362   6.985   1.744   2.928  1.5765 -0.5002  1.1059
 6615WAT      O20363   1.578   1.528   2.394 -0.2181  0.3012 -0.0260
 6615WAT     H120364   1.524   1.579   2.333  2.6454  2.6823 -0.7953
 6615WAT     H220365   1.637   1.479   2.338 -0.7574 -1.3881  0.8242
 6616WAT      O20366   2.105   1.877   0.342 -0.5103 -0.1457 -0.0309
 6616WAT     H120367   2.039   1.879   0.273  0.4660  0.7702 -0.9598
 6616WAT     H220368   2.058   1.842   0.418 -2.4466  1.7587 -0.2670
 6617WAT      O20369   0.779   0.881   4.125 -0.4560 -0.0539 -0.4868
 6617WAT     H120370   0.842   0.911   4.191  0.9504 -0.2584 -1.6828
 6617WAT     H220371   0.720   0.955   4.113 -1.3577 -0.3291  1.6538
 6618WAT      O20372   2.666   1.319   3.089 -0.0774  0.4931 -0.0768
 6618WAT     H120373   2.622   1.321   3.004  0.5128  1.7465 -0.3799
 6618WAT     H220374   2.661   1.409   3.120 -1.7787 -0.2253  2.0336
 6619WAT      O20375   6.656   0.855   3.282 -0.5124 -0.1758  0.3846
 6619WAT     H120376   6.576   0.816   3.318 -1.6604  2.0167  0.3774
 6619WAT     H220377   6.701   0.890   3.359 -1.3272  1.5967  0.1192
 6620WAT      O20378   2.104   6.049   0.949 -0.2255  0.0278  0.5736
 6620WAT     H120379   2.143   6.130   0.916 -0.6988  0.6495  1.4939
 6620WAT     H220380   2.047   6.019   0.878  0.8907 -0.1779 -0.2558
 6621WAT      O20381   7.315   5.222   2.504  0.3387 -0.8649 -0.4567
 6621WAT     H120382   7.312   5.224   2.408  0.0192  0.7924 -0.4499
 6621WAT     H220383   7.244   5.281   2.531  1.6908  0.2741  0.7524
 6622WAT      O20384   2.092   1.963   3.002  0.1408 -0.3313  0.0313
 6622WAT     H120385   2.105   1.959   3.097  0.5900 -1.5625 -0.0660
 6622WAT     H220386   2.023   1.899   2.985 -0.9300  0.8890 -0.3270
 6623WAT      O20387   1.281   2.719   3.211  0.8459  0.6152 -0.4929
 6623WAT     H120388   1.217   2.785   3.185 -0.3010  0.6799  2.1557
 6623WAT     H220389   1.268   2.647   3.149 -0.6820  1.2920 -1.0057
 6624WAT      O20390   1.304   1.413   1.136  0.6232  0.6940 -0.5606
 6624WAT     H120391   1.330   1.327   1.168 -0.6102  0.0676 -1.2222
 6624WAT     H220392   1.336   1.473   1.204  2.5913 -0.1277 -0.6858
 6625WAT      O20393   1.783   3.346   2.904  0.1527  0.2317  0.5711
 6625WAT     H120394   1.849   3.415   2.915 -0.4334  0.8438  0.2662
 6625WAT     H220395   1.699   3.392   2.908 -0.2351 -0.3931 -0.1652
 6626WAT      O20396   0.910   1.871   1.312 -0.3704 -0.5111  0.1044
 6626WAT     H120397   0.922   1.795   1.369  0.6459  0.8490  1.8069
 6626WAT     H220398   0.978   1.861   1.245 -0.5282 -1.3090  0.0544
 6627WAT      O20399   1.652   1.129   3.880 -0.2259 -0.5646 -0.6423
 6627WAT     H120400   1.708   1.080   3.821 -1.1646 -1.1783 -1.0510
 6627WAT     H220401   1.569   1.081   3.880 -1.1047  0.8784 -0.8688
 6628WAT      O20402   3.170   2.411   0.623  0.3558 -0.1901 -0.2115
 6628WAT     H120403   3.211   2.470   0.560 -1.5316 -0.0200 -1.3552
 6628WAT     H220404   3.103   2.464   0.666  0.7138 -0.6761  0.9871
 6629WAT      O20405   4.088   0.986   1.875  0.0641 -0.2143  0.0452
 6629WAT     H120406   4.017   0.966   1.936 -0.2568 -0.9415 -0.5475
 6629WAT     H220407   4.059   1.066   1.830  0.0659  0.0307  0.4775
 6630WAT      O20408   1.089   2.894   3.181 -0.1373  0.3921 -0.1658
 6630WAT     H120409   1.096   2.907   3.275 -1.0402 -0.8413  0.1032
 6630WAT     H220410   1.050   2.975   3.148 -2.8124 -0.3031  0.9992
 6631WAT      O20411   1.439   1.757   3.219 -0.2568 -0.3887 -0.3891
 6631WAT     H120412   1.408   1.669   3.239 -0.3191  0.0182  1.4336
 6631WAT     H220413   1.361   1.803   3.188 -0.8570 -0.2133  1.3192
 6632WAT      O20414   2.005   3.430   1.526 -0.1645 -0.2131 -0.4975
 6632WAT     H120415   1.999   3.359   1.462 -1.2521 -1.2600  0.7219
 6632WAT     H220416   1.927   3.421   1.580 -0.5787  2.2235 -0.5711
 6633WAT      O20417   6.638   2.784   1.636 -0.0180 -0.0805 -0.6404
 6633WAT     H120418   6.627   2.820   1.547 -0.6639 -1.7582 -1.2775
 6633WAT     H220419   6.556   2.803   1.680  0.8808  2.2106  0.2073
 6634WAT      O20420   0.657   1.868   5.517 -0.1260 -0.2141 -0.1850
 6634WAT     H120421   0.633   1.778   5.539 -1.5966  0.4034  0.9555
 6634WAT     H220422   0.733   1.860   5.461 -1.0503 -2.2301 -1.2567
 6635WAT      O20423   3.310   2.458   1.068  0.2968 -0.6470 -0.0753
 6635WAT     H120424   3.378   2.393   1.089  2.0532  0.2160 -2.6069
 6635WAT     H220425   3.233   2.406   1.047 -0.1970 -1.6489  3.4980
 6636WAT      O20426   1.515   3.870   0.909 -0.2713 -0.0374  0.1509
 6636WAT     H120427   1.426   3.866   0.945 -0.6614 -0.8075 -0.8423
 6636WAT     H220428   1.570   3.839   0.980 -1.0231 -1.4980  0.1508
 6637WAT      O20429   2.510   1.830   0.279 -0.3099  0.1074 -0.2699
 6637WAT     H120430   2.427   1.793   0.310 -0.5870  0.8208 -0.1510
 6637WAT     H220431   2.558   1.754   0.244 -1.2187 -0.2266 -0.8100
 6638WAT      O20432   2.109   2.180   1.854  0.2951  0.1353  0.3890
 6638WAT     H120433   2.053   2.251   1.888  1.2761  0.4995  1.3154
 6638WAT     H220434   2.153   2.146   1.932 -0.1410 -1.5086 -0.0433
 6639WAT      O20435   1.401   3.701   2.234 -0.5669  0.1811 -0.4071
 6639WAT     H120436   1.482   3.721   2.187 -1.3788  0.6609 -1.6622
 6639WAT     H220437   1.404   3.758   2.311  0.9526 -0.8747  0.3526
 6640WAT      O20438   2.547   2.192   0.597  0.4332  0.1452  0.4104
 6640WAT     H120439   2.587   2.190   0.684  0.3658  2.8054  0.5963
 6640WAT     H220440   2.613   2.232   0.541  0.1710 -0.8003 -0.5871
 6641WAT      O20441   3.301   1.164   5.862 -0.3336 -0.3948 -0.1991
 6641WAT     H120442   3.396   1.152   5.862 -0.4902 -1.8256  0.6098
 6641WAT     H220443   3.275   1.152   5.771  0.2484 -0.1003 -0.4064
 6642WAT      O20444   2.950   1.648   1.854  0.1024 -0.0677  0.3537
 6642WAT     H120445   2.892   1.672   1.927  0.4033  0.3571  0.4593
 6642WAT     H220446   2.935   1.717   1.789  0.0687 -0.2734  0.1445
 6643WAT      O20447   2.113   2.058   0.719 -0.7600 -0.2993 -0.3630
 6643WAT     H120448   2.180   2.076   0.654 -2.3753 -1.2763 -2.3966
 6643WAT     H220449   2.126   2.126   0.785  0.2458  1.4699 -2.2638
 6644WAT      O20450   2.141   1.782   2.015  0.4977 -0.1843 -0.1278
 6644WAT     H120451   2.117   1.781   2.108 -0.3489 -1.7260 -0.3231
 6644WAT     H220452   2.097   1.859   1.980 -0.6200 -0.5376  0.4355
 6645WAT      O20453   2.912   2.494   1.897 -0.0214  0.3330  0.4394
 6645WAT     H120454   2.855   2.550   1.845 -3.0579 -2.4113  0.5149
 6645WAT     H220455   2.882   2.405   1.878  3.3833 -1.2624  1.6123
 6646WAT      O20456   1.844   4.868   2.874 -0.1502 -0.0006  0.0703
 6646WAT     H120457   1.883   4.933   2.816  0.2013 -0.9241 -0.7570
 6646WAT     H220458   1.856   4.785   2.829 -0.4523 -0.6698  1.1738
 6647WAT      O20459   1.148   1.366   1.770 -0.4828  0.3593  0.5496
 6647WAT     H120460   1.231   1.321   1.755  0.6091  1.9742  1.4116
 6647WAT     H220461   1.081   1.301   1.750  0.9964 -1.3234  0.8536
 6648WAT      O20462   1.574   0.680   0.865 -0.5545  0.3769  0.0445
 6648WAT     H120463   1.524   0.730   0.800 -0.3886  0.7858  0.2296
 6648WAT     H220464   1.650   0.646   0.816 -0.7171  0.2182 -0.1028
 6649WAT      O20465   2.298   0.064   1.842  0.1650  0.3421 -1.2317
 6649WAT     H120466   2.287   0.150   1.801  0.0445 -0.3235 -2.6461
 6649WAT     H220467   2.391   0.045   1.835  0.0417 -0.0594 -1.7853
 6650WAT      O20468   7.253   5.827   2.901 -0.1829 -0.4867  0.2463
 6650WAT     H120469   7.161   5.848   2.884  0.0166  1.6157  1.3491
 6650WAT     H220470   7.299   5.909   2.881  1.5912 -1.7703 -1.1490
 6651WAT      O20471   2.777   5.609   1.583 -0.5313  0.4975 -0.0145
 6651WAT     H120472   2.747   5.562   1.661 -0.2369  1.6180  0.7898
 6651WAT     H220473   2.864   5.573   1.566 -0.0564  1.1506  0.9596
 6652WAT      O20474   1.736   5.237   2.373  0.2874  0.7349  0.6121
 6652WAT     H120475   1.690   5.320   2.360 -0.8226  0.6150  3.1296
 6652WAT     H220476   1.679   5.188   2.433  1.8101 -1.0951  0.6475
 6653WAT      O20477   3.548   0.856   1.150 -0.1196 -1.0705  0.0771
 6653WAT     H120478   3.591   0.938   1.175  0.7001 -1.2379 -0.7746
 6653WAT     H220479   3.564   0.847   1.056 -2.2895 -0.9784 -0.3546
 6654WAT      O20480   2.682   1.898   1.499  0.4217  0.0064  0.7237
 6654WAT     H120481   2.689   1.823   1.558  1.6583 -1.1399 -0.8055
 6654WAT     H220482   2.601   1.942   1.526 -1.2862 -2.8301  0.5909
 6655WAT      O20483   0.068   2.882   3.445  0.3117  0.4628  0.0867
 6655WAT     H120484   0.121   2.804   3.425  0.8842  0.7925  0.3051
 6655WAT     H220485   0.113   2.954   3.402 -1.3061  0.4248 -1.8467
 6656WAT      O20486   0.447   3.887   2.489  0.4026  0.0270  0.0750
 6656WAT     H120487   0.525   3.942   2.501  0.2792  0.6440 -1.6671
 6656WAT     H220488   0.453   3.823   2.559  1.1600  1.5591  1.4867
 6657WAT      O20489   0.753   4.763   2.331  0.3105 -0.4684  0.3247
 6657WAT     H120490   0.833   4.802   2.297  0.2643 -0.3907  0.3063
 6657WAT     H220491   0.684   4.792   2.272  0.2602 -0.4911  0.3715
 6658WAT      O20492   1.547   1.043   1.420 -0.4068 -0.3909 -0.4296
 6658WAT     H120493   1.515   1.109   1.359 -0.7927  0.3479  0.5535
 6658WAT     H220494   1.626   1.081   1.458 -1.7114  0.4318  1.6255
 6659WAT      O20495   1.343   4.923   2.523  0.1070  0.2947 -0.1568
 6659WAT     H120496   1.340   4.981   2.446 -0.2897  0.6836  0.1482
 6659WAT     H220497   1.262   4.873   2.520  1.1694 -1.4708 -1.3354
 6660WAT      O20498   1.381   0.999   0.920 -0.5567 -0.2844 -0.0912
 6660WAT     H120499   1.418   0.961   0.840 -1.2136  0.7365 -0.9198
 6660WAT     H220500   1.296   1.033   0.892 -1.8636 -1.9811  1.6040
 6661WAT      O20501   0.176   0.500   2.765 -0.0451  0.0769 -0.5968
 6661WAT     H120502   0.122   0.560   2.816 -0.0373 -1.0901  0.8763
 6661WAT     H220503   0.116   0.431   2.736  0.2641 -0.1702 -0.6623
 6662WAT      O20504   7.406   3.590   1.954 -0.6543 -0.3800  0.6914
 6662WAT     H120505   7.419   3.650   2.028 -1.5011 -0.9458  1.3271
 6662WAT     H220506   7.489   3.591   1.907 -0.0668 -0.0697  1.6985
 6663WAT      O20507   0.842   0.257   1.796  0.1123  0.1694  0.5291
 6663WAT     H120508   0.767   0.230   1.849 -0.3984  0.1240 -0.1970
 6663WAT     H220509   0.854   0.186   1.733  0.3904  0.4536  0.2550
 6664WAT      O20510   3.306   5.488   2.884 -0.4927  0.2334  0.5023
 6664WAT     H120511   3.320   5.441   2.803 -0.8929  1.0001 -0.0237
 6664WAT     H220512   3.254   5.428   2.938 -0.9257  0.0332 -0.1208
 6665WAT      O20513   1.271   2.451   3.361  0.7038 -0.2454 -0.0970
 6665WAT     H120514   1.310   2.535   3.384  0.8340  0.1838 -1.7762
 6665WAT     H220515   1.191   2.474   3.314  0.4615 -1.0813 -0.1119
 6666WAT      O20516   7.163   2.029   4.188  0.1914  1.3974 -0.1352
 6666WAT     H120517   7.187   2.113   4.226  0.7301  0.2266  2.3192
 6666WAT     H220518   7.224   1.966   4.227  0.8139  0.0103 -3.0301
 6667WAT      O20519   1.539   2.310   1.471 -0.4800  0.1447  0.0316
 6667WAT     H120520   1.610   2.265   1.516  0.1892 -0.4366 -1.5330
 6667WAT     H220521   1.536   2.397   1.511 -0.0973 -0.4340  1.3480
 6668WAT      O20522   0.852   3.669   1.793  0.1631 -0.0155 -0.6020
 6668WAT     H120523   0.795   3.611   1.843  0.0329  0.4466 -0.2077
 6668WAT     H220524   0.793   3.732   1.752  0.4058  0.8469  0.3050
 6669WAT      O20525   0.069   0.584   1.883 -0.0552 -0.1061 -0.5316
 6669WAT     H120526   0.117   0.526   1.941  0.5698  1.8324  1.0113
 6669WAT     H220527  -0.021   0.550   1.885  0.0937 -0.5055  1.0582
 6670WAT      O20528   3.423   5.837   2.620 -0.3188 -0.1185 -0.0799
 6670WAT     H120529   3.483   5.910   2.638  1.0872 -1.2700  0.0828
 6670WAT     H220530   3.445   5.771   2.685 -1.2504 -0.8752 -0.5047
 6671WAT      O20531   2.263   1.077   0.222  0.1836  0.0168  0.2263
 6671WAT     H120532   2.291   1.127   0.144  4.1793 -0.5188  1.0987
 6671WAT     H220533   2.271   0.986   0.195 -2.4367 -0.2564  0.1292
 6672WAT      O20534   1.734   1.380   3.778 -0.2989 -0.0005 -0.6754
 6672WAT     H120535   1.649   1.425   3.782  0.0740  0.6038  1.6561
 6672WAT     H220536   1.719   1.297   3.823  0.0257 -0.5011 -1.4755
 6673WAT      O20537   1.257   0.151   2.528 -0.2151  0.9364  0.6307
 6673WAT     H120538   1.259   0.089   2.600  0.6983  0.5878  0.3234
 6673WAT     H220539   1.202   0.109   2.461  4.1355 -1.9463 -1.5870
 6674WAT      O20540   1.415   4.232   2.759 -0.7988 -0.4363 -0.1574
 6674WAT     H120541   1.392   4.321   2.785  0.9605 -0.1382  0.5896
 6674WAT     H220542   1.390   4.226   2.667 -1.4617  0.6374 -0.0645
 6675WAT      O20543   7.077   1.809   3.158 -0.6534  0.8743  0.5015
 6675WAT     H120544   7.136   1.823   3.083 -0.6662 -0.3759  0.2407
 6675WAT     H220545   7.136   1.801   3.233 -0.5678  0.8368  0.4301
 6676WAT      O20546   7.080   2.287   2.303 -0.2823  0.2786  0.2877
 6676WAT     H120547   7.111   2.205   2.263  3.2550  0.4455  2.2912
 6676WAT     H220548   6.989   2.269   2.327 -0.5939 -1.9130 -2.1348
 6677WAT      O20549   0.724   1.240   1.955  0.8006 -0.3065  0.0418
 6677WAT     H120550   0.686   1.328   1.963  2.3873  0.4854 -0.5056
 6677WAT     H220551   0.723   1.206   2.045 -1.1024 -0.3204  0.0445
 6678WAT      O20552   1.615   1.268   3.187 -0.2984 -0.5509 -0.2655
 6678WAT     H120553   1.691   1.322   3.163 -0.2511 -0.8008 -0.6798
 6678WAT     H220554   1.625   1.255   3.281 -1.2228  1.5877  0.2041
 6679WAT      O20555   0.954   3.037   1.687 -0.0229  0.4495  0.4949
 6679WAT     H120556   0.981   3.120   1.647  1.7785 -0.0063  0.6833
 6679WAT     H220557   0.977   3.048   1.780  0.3778 -0.3031  0.4900
 6680WAT      O20558   6.313   5.116   2.110 -0.0284 -0.1949  0.4790
 6680WAT     H120559   6.267   5.121   2.026  1.3710  2.6258 -0.2268
 6680WAT     H220560   6.404   5.133   2.089  1.2057 -3.7582  2.1025
 6681WAT      O20561   0.887   1.557   3.868 -0.1393  0.0667 -0.3512
 6681WAT     H120562   0.838   1.620   3.814 -0.9027 -0.4893 -0.3055
 6681WAT     H220563   0.821   1.516   3.923  0.6617  0.7957  1.2103
 6682WAT      O20564   1.807   2.023   5.843 -0.3671  0.8127 -0.3240
 6682WAT     H120565   1.806   1.960   5.915  1.1181  1.5133  0.3590
 6682WAT     H220566   1.764   2.100   5.878  0.4517  1.1916 -0.1115
 6683WAT      O20567   1.336   1.290   3.828 -0.5434 -0.4756 -0.0252
 6683WAT     H120568   1.404   1.351   3.799 -0.4160 -1.2995 -1.5509
 6683WAT     H220569   1.256   1.343   3.828 -0.2278  0.0142 -0.0643
 6684WAT      O20570   0.418   1.791   1.680 -0.6560 -0.4164  0.3721
 6684WAT     H120571   0.334   1.795   1.725 -0.5179 -1.4645  0.7556
 6684WAT     H220572   0.409   1.718   1.619 -0.2632 -0.0793 -0.0950
 6685WAT      O20573   1.338   1.986   1.558 -0.3015 -0.0830 -0.0194
 6685WAT     H120574   1.392   2.054   1.517 -0.1363 -0.8324 -1.1050
 6685WAT     H220575   1.292   2.031   1.629 -1.4381  1.5529 -1.6872
 6686WAT      O20576   6.310   1.544   4.629 -0.1320 -0.1705 -1.0412
 6686WAT     H120577   6.306   1.481   4.556  0.3794 -0.6407 -0.6753
 6686WAT     H220578   6.221   1.545   4.664  0.0444 -1.3793 -0.4955
 6687WAT      O20579   2.563   3.387   5.411 -0.0475  0.0167  0.1015
 6687WAT     H120580   2.555   3.350   5.499  1.2998 -1.1482 -0.2431
 6687WAT     H220581   2.636   3.449   5.418  1.3595 -1.4884 -0.6062
 6688WAT      O20582   2.218   2.428   0.087 -0.3295  0.8213  0.4280
 6688WAT     H120583   2.266   2.385   0.017 -0.2898  3.4523 -1.2744
 6688WAT     H220584   2.159   2.360   0.121  0.3179 -0.7863 -1.4964
 6689WAT      O20585   1.901   4.092   2.446 -0.1696 -0.7170 -0.1900
 6689WAT     H120586   1.886   4.151   2.520 -0.9209  2.5864 -2.7407
 6689WAT     H220587   1.996   4.080   2.445 -0.0146  0.2677  0.5842
 6690WAT      O20588   0.682   3.267   5.540 -0.7266  0.1293  0.5757
 6690WAT     H120589   0.673   3.277   5.634 -1.2603 -0.2235  0.5685
 6690WAT     H220590   0.591   3.258   5.508 -0.5307 -0.1435  0.0781
 6691WAT      O20591   1.618   1.015   5.993  0.0417 -0.5908  0.4817
 6691WAT     H120592   1.580   1.101   6.006 -0.5044 -0.4933 -1.3999
 6691WAT     H220593   1.660   0.994   6.076 -1.4972  0.6257  1.6278
 6692WAT      O20594   4.518   2.640   5.695 -0.5477 -0.1345  0.1016
 6692WAT     H120595   4.508   2.736   5.697 -1.0159 -0.0855 -2.0869
 6692WAT     H220596   4.600   2.624   5.741  1.0202  1.6153 -1.8714
 6693WAT      O20597   6.566   2.207   0.696 -0.2708 -0.2073 -0.2431
 6693WAT     H120598   6.474   2.196   0.672 -0.7465  0.8841  0.9707
 6693WAT     H220599   6.610   2.227   0.613 -1.2701  0.0825 -0.7251
 6694WAT      O20600   2.501   1.872   1.260  0.2688 -0.1698  0.1093
 6694WAT     H120601   2.413   1.852   1.292 -0.1448  2.4016  0.8897
 6694WAT     H220602   2.560   1.836   1.326 -0.1993 -1.5257 -0.1915
 6695WAT      O20603   1.452   1.361   1.596  0.0724  0.1334 -0.2144
 6695WAT     H120604   1.489   1.437   1.643  0.5596  0.3519 -0.9290
 6695WAT     H220605   1.452   1.291   1.661 -0.1736  0.6892  0.3938
 6696WAT      O20606   0.051   2.322   1.711  0.2479  0.1896 -0.6386
 6696WAT     H120607  -0.030   2.297   1.667  0.5524 -0.1529 -1.0168
 6696WAT     H220608   0.049   2.418   1.713  0.8182  0.3001 -2.5993
 6697WAT      O20609   2.037   3.366   0.601 -0.5370  0.1076 -0.3025
 6697WAT     H120610   2.120   3.336   0.640 -0.9844  0.8753  1.3310
 6697WAT     H220611   1.981   3.385   0.676 -2.1290 -0.1648 -1.3807
 6698WAT      O20612   1.300   3.451   5.479 -0.2992  0.3501  0.1111
 6698WAT     H120613   1.258   3.379   5.432 -0.3426  1.6761 -1.9720
 6698WAT     H220614   1.360   3.407   5.540 -0.0280 -1.4481 -1.3598
 6699WAT      O20615   0.954   3.599   0.105  0.3439 -0.4039  0.4255
 6699WAT     H120616   1.038   3.630   0.137  0.6283 -0.1706 -0.5182
 6699WAT     H220617   0.936   3.520   0.156  0.6408  0.0992  1.3370
 6700WAT      O20618   0.676   2.837   1.138  0.3422 -0.1649  0.4096
 6700WAT     H120619   0.594   2.856   1.185 -0.2320 -0.3183 -0.5174
 6700WAT     H220620   0.666   2.881   1.054  1.4516  0.2686  0.4894
 6701WAT      O20621   0.913   1.023   4.335  0.1169  0.3984 -0.2983
 6701WAT     H120622   0.942   0.956   4.396 -0.7204 -0.1283 -0.4686
 6701WAT     H220623   0.933   1.106   4.379 -0.6582  0.0259  0.7775
 6702WAT      O20624   0.446   2.519   1.257  0.0428  0.2021  0.0521
 6702WAT     H120625   0.519   2.519   1.195  0.6171  0.9339  0.7113
 6702WAT     H220626   0.374   2.559   1.209  0.2359 -0.0050 -0.4166
 6703WAT      O20627   1.313   0.977   5.037 -0.2058 -0.4048 -0.2158
 6703WAT     H120628   1.275   1.034   4.970 -1.9275 -0.8515  0.3174
 6703WAT     H220629   1.306   0.889   5.000  0.1090 -0.5213 -0.0013
 6704WAT      O20630   1.685   1.794   2.277  0.7092 -0.0962  0.0635
 6704WAT     H120631   1.742   1.869   2.262 -0.0360 -0.0134 -2.9308
 6704WAT     H220632   1.596   1.829   2.273  0.3652 -0.9891 -0.4488
 6705WAT      O20633   7.276   2.826   3.260 -0.5563 -0.1334 -0.5589
 6705WAT     H120634   7.349   2.831   3.322  0.4618 -3.5824 -1.2476
 6705WAT     H220635   7.317   2.809   3.175 -2.1081 -0.5141 -1.2807
 6706WAT      O20636   1.489   1.576   1.777 -0.3662 -0.3102 -0.5060
 6706WAT     H120637   1.403   1.615   1.791  0.0365  0.6450 -0.5331
 6706WAT     H220638   1.522   1.559   1.865 -0.9649 -1.5888 -0.5163
 6707WAT      O20639   6.095   1.797   4.395 -0.5358  0.5677 -0.7338
 6707WAT     H120640   6.034   1.848   4.448  1.3897 -1.0587  3.5277
 6707WAT     H220641   6.044   1.722   4.364 -1.3569  0.6195  0.4431
 6708WAT      O20642   2.437   2.797   2.970 -0.3083  0.0082  0.9727
 6708WAT     H120643   2.514   2.753   3.007  1.0286  1.5869  0.2077
 6708WAT     H220644   2.434   2.768   2.879 -1.1428 -0.7024  1.2177
 6709WAT      O20645   2.190   2.093   2.114 -0.1760  0.0574  0.4941
 6709WAT     H120646   2.146   2.052   2.189 -1.1118  0.7643  0.3436
 6709WAT     H220647   2.283   2.070   2.126 -0.3198  0.0541  1.8045
 6710WAT      O20648   2.033   2.829   0.476 -0.3438  0.8159  0.0960
 6710WAT     H120649   2.118   2.793   0.500 -0.5126  2.1903  3.1467
 6710WAT     H220650   1.969   2.769   0.515 -0.8477  0.1352 -1.6466
 6711WAT      O20651   2.635   3.405   0.616 -0.0765  0.4259  0.6506
 6711WAT     H120652   2.714   3.405   0.669  0.7086  1.3266 -0.4673
 6711WAT     H220653   2.620   3.497   0.595 -0.6797  0.1482 -0.2228
 6712WAT      O20654   2.835   2.856   0.811 -0.1805 -0.7595 -0.5031
 6712WAT     H120655   2.802   2.781   0.762  0.1106  0.2087 -2.2646
 6712WAT     H220656   2.930   2.854   0.796 -0.2318  0.2641 -1.0763
 6713WAT      O20657   2.687   2.649   0.716  0.1735 -0.3625  0.1710
 6713WAT     H120658   2.725   2.605   0.640  0.5696  0.4267 -0.1072
 6713WAT     H220659   2.618   2.591   0.747 -0.1502 -0.5794 -0.9418
 6714WAT      O20660   1.908   1.530   5.706 -0.0689 -0.2261  0.0414
 6714WAT     H120661   1.973   1.599   5.695  0.2260 -0.3870  0.7151
 6714WAT     H220662   1.960   1.450   5.713 -0.3871 -0.4677 -0.3246
 6715WAT      O20663   1.896   0.065   2.095 -0.3938  0.3005  0.4062
 6715WAT     H120664   1.868  -0.004   2.155 -1.0706  0.7420  0.6062
 6715WAT     H220665   1.946   0.019   2.028  2.1784  0.0098  2.3572
 6716WAT      O20666   2.231   2.148   5.966  0.3912 -0.4092 -0.5558
 6716WAT     H120667   2.325   2.130   5.958  0.3443 -0.2194 -1.6188
 6716WAT     H220668   2.210   2.199   5.888 -0.5513 -0.2338 -0.1938
 6717WAT      O20669   0.263   1.980   2.187  0.7070 -0.0870 -0.3270
 6717WAT     H120670   0.326   1.958   2.255  1.3269 -0.4010 -0.9958
 6717WAT     H220671   0.178   1.970   2.230  1.0208 -2.0249 -0.0691
 6718WAT      O20672   1.643   1.908   5.205  0.0861  0.2702  0.4841
 6718WAT     H120673   1.578   1.948   5.263  0.2668 -0.1251  0.9635
 6718WAT     H220674   1.727   1.938   5.239  0.1648  0.9540 -0.2630
 6719WAT      O20675   1.962   0.896   0.018  0.2759  0.2422 -0.6126
 6719WAT     H120676   1.937   0.976   0.063 -0.8784  1.6375 -3.5021
 6719WAT     H220677   2.057   0.898   0.016  0.2680  1.3677 -0.4007
 6720WAT      O20678   1.641   1.749   0.314 -0.4998  0.6062  0.0082
 6720WAT     H120679   1.562   1.711   0.276 -0.5662  1.0227 -0.2803
 6720WAT     H220680   1.633   1.843   0.297 -0.5073  0.7939  1.0228
 6721WAT      O20681   1.096   2.956   0.970  0.5236 -0.1804  0.4391
 6721WAT     H120682   1.025   2.896   0.947  0.7929 -0.4571  0.3202
 6721WAT     H220683   1.148   2.963   0.891 -0.1193  1.0980  0.1070
 6722WAT      O20684   2.405   1.890   5.378 -0.7058  0.2417  0.3692
 6722WAT     H120685   2.415   1.971   5.428 -1.4270  0.9436 -0.6229
 6722WAT     H220686   2.495   1.856   5.371 -0.0954  2.0232 -0.9888
 6723WAT      O20687   2.319   1.922   2.322  0.6106 -0.0520  0.2851
 6723WAT     H120688   2.384   1.854   2.338  1.1216  0.1748 -0.7467
 6723WAT     H220689   2.321   1.977   2.400  1.4422 -0.2231  0.3875
 6724WAT      O20690   1.236   0.074   3.705 -0.7109 -1.0157 -0.2480
 6724WAT     H120691   1.263  -0.004   3.657 -0.8494 -1.2028 -0.0281
 6724WAT     H220692   1.158   0.105   3.660  0.7229  0.4509 -1.8639
 6725WAT      O20693   0.008   2.747   1.499 -0.0385  0.2984  0.1148
 6725WAT     H120694  -0.061   2.771   1.561  0.4409  0.1138  0.7317
 6725WAT     H220695   0.024   2.828   1.450  0.1738  0.6933  0.8190
 6726WAT      O20696   2.767   4.671   5.624 -0.5485  0.2881  0.1579
 6726WAT     H120697   2.694   4.721   5.589 -0.5165  0.0809 -0.2135
 6726WAT     H220698   2.837   4.683   5.560 -0.1015  0.8719  0.7535
 6727WAT      O20699   0.929   3.052   0.590  0.7991  0.3980 -0.0561
 6727WAT     H120700   0.954   3.093   0.673  0.4656 -2.6797  1.7000
 6727WAT     H220701   0.998   2.989   0.572  1.8619  2.2458 -3.2591
 6728WAT      O20702   0.764   4.161   1.057  0.2455  0.2649  0.4985
 6728WAT     H120703   0.693   4.210   1.015 -0.7695 -1.0345  0.6593
 6728WAT     H220704   0.734   4.148   1.147 -0.0882 -1.7185  0.1344
 6729WAT      O20705   1.568   0.389   0.894 -0.5059 -0.5658 -0.3166
 6729WAT     H120706   1.527   0.472   0.917 -0.1821 -0.8118  1.2912
 6729WAT     H220707   1.565   0.338   0.975  0.7503 -1.5134 -0.8383
 6730WAT      O20708   2.508   2.422   5.955  0.5637  0.1265  0.3402
 6730WAT     H120709   2.602   2.439   5.944  0.4878  0.7888  0.6365
 6730WAT     H220710   2.502   2.379   6.041  0.7094 -1.0106 -0.2042
 6731WAT      O20711   1.604   2.131   0.828 -0.2751  0.3547 -0.0601
 6731WAT     H120712   1.675   2.194   0.837  0.9437 -1.1965  1.9262
 6731WAT     H220713   1.571   2.119   0.917 -1.2130 -0.9982 -0.5620
 6732WAT      O20714   2.354   4.518   0.584 -0.0076  0.0720  0.3997
 6732WAT     H120715   2.285   4.564   0.633  0.4623  0.5497  0.6190
 6732WAT     H220716   2.308   4.483   0.507 -0.5862  0.0124  0.7639
 6733WAT      O20717   2.108   3.167   5.831  0.1357 -0.1590  0.5983
 6733WAT     H120718   2.100   3.181   5.736  1.6099 -2.2117  0.1004
 6733WAT     H220719   2.027   3.123   5.855  0.3858 -0.9973 -0.0353
 6734WAT      O20720   1.475   3.964   2.360 -1.0057 -0.4644  0.0861
 6734WAT     H120721   1.444   4.046   2.322 -3.7982 -1.2903  0.3260
 6734WAT     H220722   1.563   3.952   2.325 -1.4858  1.3824 -1.9390
 6735WAT      O20723   1.835   0.900   1.770 -0.0363 -0.0696 -0.5164
 6735WAT     H120724   1.743   0.883   1.789  0.1176  0.8527  1.2135
 6735WAT     H220725   1.881   0.880   1.851  1.0386  1.3164 -0.7381
 6736WAT      O20726   2.596   3.803   1.091  0.2834  0.4139 -0.1449
 6736WAT     H120727   2.506   3.782   1.067  0.6051 -0.4869 -0.6510
 6736WAT     H220728   2.635   3.718   1.112  1.4499  0.5747 -1.5025
 6737WAT      O20729   1.985   3.345   2.075 -0.5735  0.0892 -0.5256
 6737WAT     H120730   1.915   3.281   2.085  0.9403 -1.6763 -0.6333
 6737WAT     H220731   2.033   3.342   2.158  0.6447 -0.3421 -1.2243
 6738WAT      O20732   1.661   1.103   0.668  0.1428  0.1239 -0.1710
 6738WAT     H120733   1.704   1.105   0.753 -0.7438 -2.9683  0.4585
 6738WAT     H220734   1.733   1.101   0.605  0.8541 -0.4011  0.6448
 6739WAT      O20735   0.494   2.498   2.608  0.0441 -0.2736  0.3126
 6739WAT     H120736   0.480   2.409   2.639 -2.4747 -1.0292 -2.5515
 6739WAT     H220737   0.414   2.545   2.630  0.4377  0.6765 -0.1992
 6740WAT      O20738   1.451   2.125   1.962  0.1596  0.0284  0.5313
 6740WAT     H120739   1.420   2.142   2.051 -0.0863  2.9314 -0.0091
 6740WAT     H220740   1.386   2.168   1.906  1.1659 -0.3784 -0.9986
 6741WAT      O20741   1.972   2.211   0.552  0.3462  0.1118  0.3332
 6741WAT     H120742   2.033   2.144   0.584  0.0608  0.4378  1.6164
 6741WAT     H220743   1.938   2.175   0.470  2.1180 -0.1570 -0.3414
 6742WAT      O20744   2.620   3.421   0.149 -0.2598  0.0025  0.1751
 6742WAT     H120745   2.603   3.489   0.214 -0.7436 -0.1738  0.2432
 6742WAT     H220746   2.581   3.342   0.187 -0.3796 -0.1429 -0.2407
 6743WAT      O20747   1.179   3.337   1.588  0.3613 -0.0816 -0.0144
 6743WAT     H120748   1.139   3.342   1.502  0.8446  0.4999 -0.2134
 6743WAT     H220749   1.105   3.344   1.649 -0.0124 -0.8204 -0.3712
 6744WAT      O20750   6.766   2.388   1.349 -0.3756  0.0918  0.6802
 6744WAT     H120751   6.688   2.394   1.405 -0.3173  1.2806  0.6691
 6744WAT     H220752   6.781   2.478   1.320  1.2177 -0.0487  0.9628
 6745WAT      O20753   1.844   1.597   1.379  0.6787 -0.3390  0.7290
 6745WAT     H120754   1.768   1.626   1.327  1.4899  0.1703 -0.1991
 6745WAT     H220755   1.904   1.560   1.314  1.2116 -0.7796  1.4644
 6746WAT      O20756   2.150   2.083   1.189  0.3378 -0.0838  0.7154
 6746WAT     H120757   2.199   2.165   1.187  1.7085 -0.8023  2.2678
 6746WAT     H220758   2.071   2.103   1.239 -2.1717  1.6025 -3.4739
 6747WAT      O20759   2.307   1.443   1.711 -0.1481  0.6947 -0.6796
 6747WAT     H120760   2.253   1.365   1.697  2.3424 -1.4892  0.8615
 6747WAT     H220761   2.281   1.474   1.798  1.4333 -0.8686  0.4495
 6748WAT      O20762   0.449   6.111   3.482  0.4560  0.4870 -0.4240
 6748WAT     H120763   0.510   6.054   3.435  0.3310  0.6176 -0.7443
 6748WAT     H220764   0.506   6.177   3.522  0.8984 -1.2992  2.1082
 6749WAT      O20765   1.609   2.580   1.470  0.3848 -0.1396 -0.2555
 6749WAT     H120766   1.702   2.583   1.446  1.3711  2.2962  3.1685
 6749WAT     H220767   1.567   2.640   1.409  1.3865  0.1563 -0.6735
 6750WAT      O20768   0.635   2.352   0.961  0.1131 -0.0364  0.1188
 6750WAT     H120769   0.657   2.432   1.011  0.9966  0.1609 -0.5594
 6750WAT     H220770   0.711   2.338   0.905 -0.2106 -1.1432 -0.0554
 6751WAT      O20771   1.858   3.471   0.803  0.3127 -0.4145 -0.0891
 6751WAT     H120772   1.898   3.558   0.812  0.0894 -0.5064  2.3919
 6751WAT     H220773   1.771   3.480   0.841  0.6446 -1.9349  1.1513
 6752WAT      O20774   2.506   0.060   1.146  0.2990 -0.0973  0.0489
 6752WAT     H120775   2.410   0.052   1.143  0.1235  1.6846 -0.6444
 6752WAT     H220776   2.536   0.003   1.075 -0.1088 -1.7335  1.1219
 6753WAT      O20777   1.140   3.704   1.672 -0.2392 -0.1327  0.5929
 6753WAT     H120778   1.092   3.655   1.738 -0.9526 -0.1417  0.0800
 6753WAT     H220779   1.072   3.744   1.618  0.3291  1.0427  0.7160
 6754WAT      O20780   1.725   2.788   1.694 -0.2370 -0.0308  0.1924
 6754WAT     H120781   1.705   2.743   1.777 -0.6509  0.7286  0.5130
 6754WAT     H220782   1.687   2.732   1.627 -0.8063 -0.1322  0.5908
 6755WAT      O20783   1.294   2.679   1.611  0.6323 -0.5127 -0.2763
 6755WAT     H120784   1.307   2.765   1.652  1.9598 -0.0130 -1.6309
 6755WAT     H220785   1.333   2.617   1.672 -1.1834 -0.3175  1.1767
 6756WAT      O20786   2.050   2.599   2.659  0.2034 -0.2020  0.7015
 6756WAT     H120787   1.970   2.603   2.607  0.1048 -0.0227  0.8650
 6756WAT     H220788   2.069   2.690   2.682  1.1770 -0.1032 -0.4184
 6757WAT      O20789   0.777   2.590   5.498 -0.5604  0.0112  0.1400
 6757WAT     H120790   0.834   2.659   5.531 -1.1414  0.1388  0.8910
 6757WAT     H220791   0.691   2.610   5.534 -0.9128 -0.6403 -0.3109
 6758WAT      O20792   1.835   0.743   0.216 -0.3368 -0.1246 -0.2463
 6758WAT     H120793   1.798   0.831   0.225 -1.4626 -0.6135  0.0516
 6758WAT     H220794   1.896   0.750   0.143 -1.1933  0.6617 -0.9031
 6759WAT      O20795   1.843   5.814   2.348  0.7097 -0.1887 -0.0821
 6759WAT     H120796   1.861   5.901   2.382  0.8507 -0.1961 -0.1389
 6759WAT     H220797   1.815   5.829   2.257 -0.0178 -0.1370  0.1390
 6760WAT      O20798   2.988   1.787   2.510 -0.1856 -0.3446  0.5304
 6760WAT     H120799   3.021   1.872   2.537  0.3106 -0.5161  0.4781
 6760WAT     H220800   3.065   1.741   2.477 -0.6765 -0.3286 -0.6870
 6761WAT      O20801   1.298   2.948   1.728 -0.4996  0.3061 -0.2268
 6761WAT     H120802   1.378   2.950   1.676  0.0442 -1.8502  0.4208
 6761WAT     H220803   1.301   3.028   1.780  0.1383  1.3033 -1.7437
 6762WAT      O20804   6.588   3.060   2.870 -0.2219  0.3245 -0.3335
 6762WAT     H120805   6.554   3.040   2.782 -1.5455 -0.0977  0.2462
 6762WAT     H220806   6.511   3.056   2.926  0.8786 -1.1406  1.1517
 6763WAT      O20807   1.185   1.628   0.746  0.4816 -0.5661 -0.1542
 6763WAT     H120808   1.114   1.602   0.805  2.0688 -2.6786  0.9778
 6763WAT     H220809   1.155   1.711   0.708 -1.4247 -0.0373  2.2203
 6764WAT      O20810   7.410   2.257   1.001 -0.3120  0.1727  0.3769
 6764WAT     H120811   7.504   2.243   1.011 -0.3301 -0.0731  0.2339
 6764WAT     H220812   7.380   2.180   0.952 -0.6366  0.1050  0.6805
 6765WAT      O20813   1.107   2.595   5.317 -0.6643  0.6752  0.0697
 6765WAT     H120814   1.183   2.556   5.362 -1.2534 -0.1256  0.4022
 6765WAT     H220815   1.078   2.526   5.257 -1.7611  0.5684  0.7040
 6766WAT      O20816   0.276   2.033   2.882  0.2165 -0.1642  0.0325
 6766WAT     H120817   0.291   2.079   2.965  2.4746 -0.7353  0.0036
 6766WAT     H220818   0.315   1.947   2.896 -0.8577 -0.8553 -1.0928
 6767WAT      O20819   6.976   2.363   0.896  0.2472 -0.1102 -0.0019
 6767WAT     H120820   6.924   2.426   0.946  0.5951 -0.3390  0.6564
 6767WAT     H220821   6.918   2.288   0.884 -0.5882  0.7708 -1.8096
 6768WAT      O20822   3.656   2.983   5.811 -0.6215 -0.0209  0.3315
 6768WAT     H120823   3.691   3.023   5.731 -0.0582 -0.5500  0.3053
 6768WAT     H220824   3.635   2.893   5.785 -1.1136  0.0146  0.5976
 6769WAT      O20825   2.084   1.204   0.610 -0.6289  0.0907  0.1729
 6769WAT     H120826   2.002   1.176   0.568  1.0609 -0.6667 -2.9109
 6769WAT     H220827   2.090   1.297   0.591  0.0039 -0.1987 -1.2267
 6770WAT      O20828   2.033   2.947   2.621 -0.0106 -0.2118  0.5642
 6770WAT     H120829   2.094   3.012   2.585  0.1739 -0.3445  0.6380
 6770WAT     H220830   2.084   2.898   2.685  0.3598 -1.5757 -0.7096
 6771WAT      O20831   2.225   3.109   1.344 -1.0682 -0.2414  0.5671
 6771WAT     H120832   2.268   3.080   1.263 -0.6118 -0.8658  1.0223
 6771WAT     H220833   2.295   3.112   1.409 -0.9255  2.5701  0.4221
 6772WAT      O20834   2.290   2.160   0.560 -0.6995 -0.3590  0.2898
 6772WAT     H120835   2.295   2.165   0.464 -1.8373 -0.5107  0.2044
 6772WAT     H220836   2.379   2.178   0.590 -0.1425 -1.1274 -0.8256
 6773WAT      O20837   0.802   2.731   4.796  0.0347 -0.0942 -0.3600
 6773WAT     H120838   0.849   2.710   4.876  0.4014  1.8888  0.0046
 6773WAT     H220839   0.710   2.719   4.818  0.2260 -2.1479 -0.4986
 6774WAT      O20840   7.002   2.261   1.446 -0.2506  0.0477 -0.5990
 6774WAT     H120841   7.054   2.339   1.425 -1.2340  0.0759 -3.3198
 6774WAT     H220842   6.912   2.288   1.429 -0.9866 -0.7202  1.7421
 6775WAT      O20843   1.485   1.845   1.929 -0.0774 -0.1885  0.2359
 6775WAT     H120844   1.525   1.807   1.850  0.8988 -0.3475  0.7954
 6775WAT     H220845   1.443   1.926   1.898  0.3673 -0.2008 -0.4220
 6776WAT      O20846   0.606   2.912   0.894 -0.1709 -0.3738  0.2179
 6776WAT     H120847   0.528   2.858   0.906  0.9468 -2.1984 -0.4234
 6776WAT     H220848   0.619   2.914   0.799 -1.2104  2.6306  0.0111
 6777WAT      O20849   1.884   2.668   0.115  0.0936 -0.6308  0.3033
 6777WAT     H120850   1.876   2.737   0.181  1.6324  0.0052 -0.1170
 6777WAT     H220851   1.956   2.614   0.146  1.0710 -0.1142 -1.0050
 6778WAT      O20852   1.173   2.092   1.043 -0.0643  0.3665 -0.0348
 6778WAT     H120853   1.204   2.010   1.082  0.2855  0.5082 -0.0085
 6778WAT     H220854   1.136   2.141   1.116  0.8904  0.7721  0.1907
 6779WAT      O20855   1.101   2.252   1.286  0.1254  0.1206 -0.1052
 6779WAT     H120856   1.186   2.284   1.314  0.2308 -0.3684  0.1516
 6779WAT     H220857   1.057   2.226   1.367 -0.0481 -0.1510 -0.2839
 6780WAT      O20858   1.525   2.022   0.349 -0.4408  0.8256 -0.5348
 6780WAT     H120859   1.458   2.078   0.388 -0.2831 -0.1113  1.1672
 6780WAT     H220860   1.571   2.079   0.287 -2.6613  1.5219 -1.6240
 6781WAT      O20861   3.483   1.624   2.471 -0.1445 -0.0640 -0.3465
 6781WAT     H120862   3.398   1.621   2.515 -0.0102 -1.2461 -0.1515
 6781WAT     H220863   3.507   1.532   2.458  1.1070  0.2531 -0.3948
 6782WAT      O20864   3.313   1.316   5.427 -0.1913 -0.6363 -0.1853
 6782WAT     H120865   3.305   1.411   5.417  0.7573 -0.5072  0.1339
 6782WAT     H220866   3.394   1.304   5.477 -0.5453 -1.5967  0.1794
 6783WAT      O20867   1.469   1.311   6.009 -0.6494  0.7360  0.6727
 6783WAT     H120868   1.376   1.322   5.989 -0.8289  1.0682  1.6340
 6783WAT     H220869   1.514   1.362   5.942 -1.0315 -1.1641 -1.1314
 6784WAT      O20870   2.489   0.361   1.297 -0.3158  0.1369  0.0749
 6784WAT     H120871   2.562   0.408   1.257 -0.4538  0.8357  0.6193
 6784WAT     H220872   2.519   0.271   1.302 -0.0126  0.1722 -0.9176
 6785WAT      O20873   7.108   1.665   4.554  0.2209 -0.6333  0.0334
 6785WAT     H120874   7.080   1.581   4.590  1.0824 -0.6297  0.7429
 6785WAT     H220875   7.041   1.686   4.489 -0.9512 -1.0286  1.0637
 6786WAT      O20876   0.877   2.064   4.853  0.1104  0.1792  0.2306
 6786WAT     H120877   0.971   2.054   4.838  0.1648  0.2438  0.5410
 6786WAT     H220878   0.870   2.125   4.926 -0.1739  0.0921  0.2770
 6787WAT      O20879   3.007   5.606   4.808  0.0419  1.1544  0.7143
 6787WAT     H120880   3.097   5.579   4.824  0.0887  0.8876  0.0448
 6787WAT     H220881   3.005   5.629   4.715 -1.2275 -1.5151 -0.0079
 6788WAT      O20882   0.972   2.342   3.552  0.3298  0.4574 -0.3235
 6788WAT     H120883   1.046   2.288   3.523 -0.2885 -0.3995 -0.3525
 6788WAT     H220884   1.012   2.409   3.608  1.0167 -0.7118  0.6474
 6789WAT      O20885   3.166   5.707   5.617  0.6717  0.2859  0.5108
 6789WAT     H120886   3.175   5.710   5.522 -0.7190 -0.1496  0.3350
 6789WAT     H220887   3.226   5.773   5.650  0.9244  0.6705 -0.6937
 6790WAT      O20888   3.277   2.963   4.904 -0.3401  0.4042  0.0168
 6790WAT     H120889   3.186   2.956   4.931 -0.7110 -0.0324 -1.2830
 6790WAT     H220890   3.286   2.900   4.833  0.4704  1.7878 -1.1635
 6791WAT      O20891   1.683   1.281   3.495  0.6871  0.1617  0.3965
 6791WAT     H120892   1.687   1.351   3.561  0.6314  0.3067  0.2459
 6791WAT     H220893   1.773   1.249   3.489  1.0024  1.1364 -0.5225
 6792WAT      O20894   1.727   3.986   5.213  0.0378  0.2651  0.2397
 6792WAT     H120895   1.669   4.058   5.235  1.2263  2.2111 -2.4823
 6792WAT     H220896   1.752   3.948   5.298 -3.4448  0.6419  1.5827
 6793WAT      O20897   1.321   0.426   3.971 -0.3853 -0.7580 -0.2075
 6793WAT     H120898   1.308   0.332   3.974 -1.1904 -0.6298  0.4073
 6793WAT     H220899   1.416   0.437   3.966 -0.1974 -1.5709  1.2365
 6794WAT      O20900   7.236   1.222   3.697 -0.6453  0.0940  0.7819
 6794WAT     H120901   7.270   1.309   3.677 -1.0599  0.1808  0.4370
 6794WAT     H220902   7.307   1.162   3.673 -0.0764  0.3762  1.7081
 6795WAT      O20903   6.663   0.417   3.820  0.5551  0.3288  0.2014
 6795WAT     H120904   6.644   0.469   3.897  2.4419 -0.0339  0.9734
 6795WAT     H220905   6.704   0.479   3.759  1.0304  0.1629  0.3504
 6796WAT      O20906   2.373   1.351   5.945  0.6578  0.1008  0.0430
 6796WAT     H120907   2.383   1.387   6.033  1.2873  2.5554 -0.9341
 6796WAT     H220908   2.430   1.274   5.943  0.4833 -0.1115  1.8108
 6797WAT      O20909   0.577   1.860   4.223  0.5898 -0.1979  0.3491
 6797WAT     H120910   0.551   1.769   4.211 -0.1329  0.0797 -0.3320
 6797WAT     H220911   0.630   1.860   4.302 -0.0931 -1.0781  0.8251
 6798WAT      O20912   0.117   0.858   3.417  0.0551 -0.7027 -0.1134
 6798WAT     H120913   0.175   0.795   3.460  0.4951 -0.0313  0.2961
 6798WAT     H220914   0.069   0.806   3.353  1.9499 -1.0763 -1.3181
 6799WAT      O20915   1.611   0.785   3.217  0.2847  0.3947 -0.0027
 6799WAT     H120916   1.689   0.767   3.166 -0.1254 -0.4475 -0.3653
 6799WAT     H220917   1.577   0.698   3.240 -0.2333  0.7501  0.6196
 6800WAT      O20918   2.372   1.348   3.762  0.3714 -0.4593  1.0561
 6800WAT     H120919   2.466   1.358   3.746  0.0554  1.1662 -0.0714
 6800WAT     H220920   2.336   1.436   3.751 -1.5837 -1.3727 -0.8596
 6801WAT      O20921   2.779   1.112   4.368  0.1198 -0.5988  0.0183
 6801WAT     H120922   2.787   1.186   4.308  0.3114 -1.3058 -0.8573
 6801WAT     H220923   2.706   1.134   4.424  0.0060  0.1347 -0.4089
 6802WAT      O20924   3.603   2.330   0.055  0.2689  0.5096 -0.1492
 6802WAT     H120925   3.658   2.300  -0.018  3.4595 -0.0288  2.2520
 6802WAT     H220926   3.564   2.249   0.090 -0.4827  0.6585 -0.6076
 6803WAT      O20927   1.338   5.644   3.996  0.3246  0.0128  0.6956
 6803WAT     H120928   1.277   5.614   3.929  0.7270 -0.0007  0.3320
 6803WAT     H220929   1.282   5.669   4.070 -0.1475  0.3904  0.2181
 6804WAT      O20930   6.433   2.090   4.869  0.5753  0.0187  0.4717
 6804WAT     H120931   6.384   2.038   4.932  0.0839  2.8220  2.5684
 6804WAT     H220932   6.502   2.132   4.920  1.4054  0.9068 -1.2620
 6805WAT      O20933   0.718   0.725   4.368  0.3651  0.3657 -0.0956
 6805WAT     H120934   0.725   0.788   4.296 -0.6667 -0.3803 -0.8719
 6805WAT     H220935   0.665   0.770   4.434  0.5046  0.6832 -0.1961
 6806WAT      O20936   1.872   0.720   3.617  0.2536 -0.0954 -0.4160
 6806WAT     H120937   1.850   0.628   3.604 -0.8230 -0.2806  2.2089
 6806WAT     H220938   1.836   0.764   3.539  0.1366 -1.7639 -1.3476
 6807WAT      O20939   2.484   1.663   0.791  0.1800 -1.0014  0.6934
 6807WAT     H120940   2.537   1.676   0.869 -2.2502 -0.2906  2.3633
 6807WAT     H220941   2.409   1.612   0.822 -0.3867 -1.5505 -1.4216
 6808WAT      O20942   2.876   5.819   1.855 -0.5815 -0.4496  0.1369
 6808WAT     H120943   2.793   5.799   1.898 -0.5552 -0.2311  0.2899
 6808WAT     H220944   2.878   5.761   1.778 -0.9820 -0.2891  0.0055
 6809WAT      O20945   1.530   1.754   2.561 -0.1975  0.2004  0.0373
 6809WAT     H120946   1.546   1.686   2.496  1.3328 -0.2841  0.8900
 6809WAT     H220947   1.443   1.734   2.596 -0.8062  0.1501 -1.4338
 6810WAT      O20948   0.755   2.487   3.579  0.0650  0.1322  0.1407
 6810WAT     H120949   0.834   2.433   3.578 -0.7547 -1.1451 -1.6766
 6810WAT     H220950   0.786   2.576   3.563  1.1236 -0.3524 -0.5854
 6811WAT      O20951   1.432   1.290   4.455 -0.1094  0.1106 -0.2834
 6811WAT     H120952   1.518   1.276   4.493  0.2075 -0.0737 -1.0522
 6811WAT     H220953   1.434   1.381   4.424  0.8117 -0.6802 -2.7577
 6812WAT      O20954   3.357   1.079   4.201 -0.7014 -0.0754 -0.0918
 6812WAT     H120955   3.369   1.113   4.112 -2.3430 -2.7979 -1.5088
 6812WAT     H220956   3.269   1.108   4.225 -0.5039  0.1248  0.3985
 6813WAT      O20957   2.061   0.317   0.164  0.2781 -0.7337 -0.1314
 6813WAT     H120958   1.978   0.289   0.125 -1.5238  0.3044  2.6000
 6813WAT     H220959   2.039   0.399   0.209  2.7381 -0.5831  0.9328
 6814WAT      O20960   0.366   1.238   4.229 -0.3724  0.0843  0.0462
 6814WAT     H120961   0.321   1.166   4.274 -0.1609 -0.5525 -0.7382
 6814WAT     H220962   0.369   1.308   4.294 -0.9191 -0.4821  0.7023
 6815WAT      O20963   3.400   1.354   2.521  0.2750 -0.0486 -0.1200
 6815WAT     H120964   3.333   1.375   2.586  0.6249  1.1427 -0.1351
 6815WAT     H220965   3.480   1.340   2.572  0.5230  0.7693 -0.2651
 6816WAT      O20966   1.777   1.402   0.223 -0.0092 -0.5230  0.2370
 6816WAT     H120967   1.683   1.417   0.236 -0.1718  0.3439 -1.5909
 6816WAT     H220968   1.820   1.456   0.289 -0.7786  0.4006  0.0002
 6817WAT      O20969   2.511   1.179   3.268  0.4095 -0.1647  0.5433
 6817WAT     H120970   2.553   1.216   3.190  0.1468  0.4037  0.6652
 6817WAT     H220971   2.445   1.119   3.233  0.0886  0.3119  0.3120
 6818WAT      O20972   2.882   1.240   2.674 -0.4804  0.6600 -0.6686
 6818WAT     H120973   2.791   1.247   2.647 -1.1945  0.9373  1.6686
 6818WAT     H220974   2.919   1.175   2.614 -2.5888 -0.5715 -0.7330
 6819WAT      O20975   1.773   0.427   3.712  0.1341 -0.0263 -0.7395
 6819WAT     H120976   1.740   0.341   3.740  0.9540 -0.0449  0.2334
 6819WAT     H220977   1.762   0.483   3.789 -0.0045  0.6365 -1.2316
 6820WAT      O20978   0.880   0.370   2.464 -0.2777  0.3990 -0.1795
 6820WAT     H120979   0.831   0.387   2.544 -1.0138 -1.2071 -0.2396
 6820WAT     H220980   0.960   0.422   2.472 -1.0233  1.4283  0.8857
 6821WAT      O20981   4.006   2.296   5.199  0.4215  0.0557  0.0438
 6821WAT     H120982   3.986   2.388   5.180  0.8379  0.0549 -0.4284
 6821WAT     H220983   4.099   2.288   5.178  0.3473 -0.5112 -0.0649
 6822WAT      O20984   2.913   1.342   3.898 -0.1285  0.5474 -0.9592
 6822WAT     H120985   3.007   1.346   3.880  0.9876 -2.3329  2.7960
 6822WAT     H220986   2.876   1.292   3.825  1.6896 -0.1690 -1.4340
 6823WAT      O20987   3.182   1.731   5.487 -0.2452  0.1313  0.6205
 6823WAT     H120988   3.220   1.817   5.468 -0.2163  0.2820  1.3376
 6823WAT     H220989   3.104   1.750   5.539 -0.1711 -0.2773  0.8836
 6824WAT      O20990   2.519   0.413   5.235 -0.5819 -0.5758 -0.8635
 6824WAT     H120991   2.438   0.364   5.226 -0.4212 -1.0244 -0.0347
 6824WAT     H220992   2.582   0.348   5.268 -0.4735  0.2554  0.6613
 6825WAT      O20993   3.794   0.238   5.019  0.4137  0.5295  0.0564
 6825WAT     H120994   3.832   0.303   4.960  0.1054 -0.8899 -1.8193
 6825WAT     H220995   3.842   0.158   5.000 -1.3781 -0.5617 -0.1287
 6826WAT      O20996   1.217   1.726   3.445  0.0046 -0.8326  0.1658
 6826WAT     H120997   1.200   1.772   3.363 -0.9271  0.0101  0.8028
 6826WAT     H220998   1.133   1.686   3.468 -0.1586  0.1275  1.3978
 6827WAT      O20999   1.781   3.360   5.664 -0.3003  0.3092 -0.2700
 6827WAT     H121000   1.703   3.413   5.644  0.7426  1.7012 -0.8216
 6827WAT     H221001   1.825   3.409   5.734 -0.5293 -1.1028  0.8926
 6828WAT      O21002   2.577   1.668   4.729  0.2256  0.1094 -0.1488
 6828WAT     H121003   2.552   1.575   4.732 -1.2730  0.4963  0.2605
 6828WAT     H221004   2.532   1.702   4.651 -1.3789  1.0414  1.1275
 6829WAT      O21005   2.445   6.102   3.699 -0.2206 -0.3839  0.1142
 6829WAT     H121006   2.459   6.023   3.647  0.5826 -0.1378 -0.0693
 6829WAT     H221007   2.477   6.173   3.643  1.9523 -0.2449  1.4120
 6830WAT      O21008   1.787   1.556   1.629 -0.3472 -0.7691 -0.2627
 6830WAT     H121009   1.801   1.553   1.534 -0.1866  0.7546 -0.3095
 6830WAT     H221010   1.720   1.623   1.641  1.1509  0.5995  0.8310
 6831WAT      O21011   5.979   0.249   3.143 -0.2475 -0.0810 -0.3788
 6831WAT     H121012   5.916   0.294   3.087 -0.4879 -1.0757 -0.9387
 6831WAT     H221013   5.927   0.185   3.191  0.0615  0.3286  0.5202
 6832WAT      O21014   1.619   1.974   3.084  0.4005  0.6995 -0.8625
 6832WAT     H121015   1.621   1.910   3.155  0.6434 -0.2039 -1.6568
 6832WAT     H221016   1.539   2.024   3.099 -0.8398 -1.0533 -1.2693
 6833WAT      O21017   6.416   0.369   1.871  0.0253 -0.0350 -0.6834
 6833WAT     H121018   6.322   0.350   1.879  0.1663 -1.6581 -2.3961
 6833WAT     H221019   6.425   0.456   1.912 -2.0224 -0.2640  0.4360
 6834WAT      O21020   2.023   0.721   4.289 -0.5926 -0.6191  0.4655
 6834WAT     H121021   2.037   0.659   4.361 -0.9406  1.1241  2.1230
 6834WAT     H221022   1.930   0.711   4.267 -0.5147 -1.0760  0.3374
 6835WAT      O21023   1.917   0.152   3.936  0.1454 -0.6067  0.0656
 6835WAT     H121024   1.846   0.089   3.923  0.3044 -0.8019  0.1347
 6835WAT     H221025   1.882   0.216   3.998  0.9133 -2.1517  2.1987
 6836WAT      O21026   1.349   6.060   3.103  0.3242 -0.2390 -0.1928
 6836WAT     H121027   1.295   6.066   3.181  2.1413 -1.7663  1.2751
 6836WAT     H221028   1.294   6.016   3.038 -0.7725 -0.0832  0.6062
 6837WAT      O21029   3.338   1.973   4.014 -0.2630 -0.5862 -0.0484
 6837WAT     H121030   3.294   1.976   4.099 -0.8776 -0.3521 -0.3677
 6837WAT     H221031   3.273   2.007   3.952  0.0711 -1.0378 -0.6581
 6838WAT      O21032   2.145   0.686   3.604 -0.0298  0.3373 -0.0055
 6838WAT     H121033   2.070   0.743   3.621  0.0780  0.0846  1.3948
 6838WAT     H221034   2.107   0.599   3.593 -0.0960  0.4867 -1.1857
 6839WAT      O21035   3.207   1.712   3.825 -0.1772 -0.3161 -0.2095
 6839WAT     H121036   3.280   1.773   3.825 -1.5397  1.4051 -0.0893
 6839WAT     H221037   3.246   1.627   3.847  1.8589  0.3910 -0.9064
 6840WAT      O21038   1.925   0.291   3.383 -0.4495  0.5917  0.3395
 6840WAT     H121039   1.884   0.205   3.392 -0.9485  0.8579  0.6538
 6840WAT     H221040   1.951   0.314   3.472 -0.4852  0.8469  0.2834
 6841WAT      O21041   1.972   5.894   3.766  0.4117 -0.2484 -0.6882
 6841WAT     H121042   1.885   5.859   3.747  0.0705  0.2022  0.0315
 6841WAT     H221043   1.988   5.872   3.858  0.8716  0.0592 -0.6876
 6842WAT      O21044   2.975   2.213   4.028 -0.0583 -0.1026  0.5464
 6842WAT     H121045   3.053   2.237   4.079 -1.3332 -0.0445  2.5807
 6842WAT     H221046   2.963   2.120   4.046 -0.7045 -0.0098  0.6133
 6843WAT      O21047   4.279   0.853   2.510  0.3599 -0.1529 -0.2834
 6843WAT     H121048   4.308   0.880   2.422 -0.1270  0.1751 -0.3444
 6843WAT     H221049   4.184   0.862   2.508  0.2911 -0.7428  0.0827
 6844WAT      O21050   6.597   0.077   2.342 -0.9052 -0.0945  0.4122
 6844WAT     H121051   6.517   0.032   2.315 -0.3729 -0.7123 -0.1490
 6844WAT     H221052   6.605   0.151   2.282 -0.3713 -0.7759 -0.3745
 6845WAT      O21053   1.591   2.206   4.366 -0.5445 -0.1460  0.2727
 6845WAT     H121054   1.649   2.175   4.436 -1.3830 -0.4986  0.8322
 6845WAT     H221055   1.514   2.149   4.372 -1.2373  0.7282 -0.0231
 6846WAT      O21056   1.316   1.426   2.483 -0.0254 -0.0437 -0.3307
 6846WAT     H121057   1.385   1.423   2.417  0.4426 -0.0050  0.1491
 6846WAT     H221058   1.246   1.371   2.448  0.2951 -0.1738 -0.7671
 6847WAT      O21059   7.373   0.022   2.139  0.5212 -0.7756  0.3179
 6847WAT     H121060   7.308  -0.021   2.084  1.4757 -0.3518 -1.1999
 6847WAT     H221061   7.327   0.041   2.220 -0.9818 -1.2868 -0.3827
 6848WAT      O21062   4.581   1.661   3.946  0.6345  0.7582  0.1029
 6848WAT     H121063   4.604   1.633   3.858 -0.9996  0.6965 -0.3481
 6848WAT     H221064   4.601   1.754   3.948 -0.7988  1.1260 -0.9079
 6849WAT      O21065   2.163   6.132   3.484 -0.2731 -0.0916  0.0626
 6849WAT     H121066   2.196   6.137   3.574  0.2887 -0.1926 -0.1328
 6849WAT     H221067   2.082   6.082   3.491 -0.4611  0.2802  0.5734
 6850WAT      O21068   1.807   0.469   1.614  0.4889 -0.2312  0.0407
 6850WAT     H121069   1.874   0.471   1.546  0.4413 -0.4564 -0.0136
 6850WAT     H221070   1.853   0.437   1.692  0.9841  1.7391  0.6124
 6851WAT      O21071   1.927   5.643   4.176  0.1195  0.6260 -0.4888
 6851WAT     H121072   1.988   5.653   4.103  1.2522 -2.9653 -0.2326
 6851WAT     H221073   1.899   5.552   4.171 -2.1032  1.0728  1.8508
 6852WAT      O21074   3.000   0.051   4.432  0.1352  0.1048  0.4222
 6852WAT     H121075   2.946   0.129   4.424 -1.0997 -0.6366  1.1337
 6852WAT     H221076   3.005   0.035   4.526 -1.9979 -2.1833  0.2625
 6853WAT      O21077   2.934   5.342   5.562 -0.0007 -0.2129 -0.2996
 6853WAT     H121078   3.002   5.341   5.629  1.0518  0.1385 -1.3344
 6853WAT     H221079   2.917   5.435   5.547 -1.5753 -0.2810  0.7652
 6854WAT      O21080   2.305   5.773   3.783  0.1323 -0.4674  0.0311
 6854WAT     H121081   2.308   5.696   3.839 -0.8329  0.5937  1.5942
 6854WAT     H221082   2.228   5.821   3.811 -0.0065  0.4495 -1.7745
 6855WAT      O21083   1.587   0.625   1.663 -0.0008  0.0595 -0.2099
 6855WAT     H121084   1.574   0.670   1.579 -0.4810  2.3736  1.0435
 6855WAT     H221085   1.654   0.559   1.644 -0.2499  0.3717 -2.4540
 6856WAT      O21086   6.746   1.037   2.546 -0.7261  0.4949  0.1460
 6856WAT     H121087   6.833   1.022   2.583 -0.7698 -0.4059 -0.0928
 6856WAT     H221088   6.698   1.082   2.615 -0.0311  1.1419  0.2250
 6857WAT      O21089   1.012   0.459   2.154 -0.8526  0.7597 -0.3488
 6857WAT     H121090   0.960   0.488   2.079 -1.0994  0.6552 -0.2158
 6857WAT     H221091   1.032   0.367   2.134 -2.4510  0.1796  0.5717
 6858WAT      O21092   2.594   0.121   1.772 -0.0061  0.4054  0.8387
 6858WAT     H121093   2.678   0.134   1.728 -0.7809  1.4189 -0.4106
 6858WAT     H221094   2.572   0.207   1.808  0.9583 -0.5266  4.0008
 6859WAT      O21095   2.308   1.320   2.626  0.4076 -0.4339  0.9581
 6859WAT     H121096   2.304   1.234   2.586  2.1047  0.4523 -1.3848
 6859WAT     H221097   2.223   1.360   2.608  0.1583 -1.0831  0.6972
 6860WAT      O21098   0.821   3.022   4.932 -0.5056  0.0659 -0.5540
 6860WAT     H121099   0.817   3.081   4.857 -1.5092  0.5726 -0.1193
 6860WAT     H221100   0.766   2.948   4.907 -0.0829 -0.2070 -0.6851
 6861WAT      O21101   0.810   1.342   2.374  0.4433  0.5745  0.1198
 6861WAT     H121102   0.731   1.384   2.407  0.7065  2.5945 -1.5788
 6861WAT     H221103   0.780   1.261   2.333 -0.6046  0.8522  0.3073
 6862WAT      O21104   1.701   5.878   3.381 -0.1890 -0.5174 -0.5701
 6862WAT     H121105   1.747   5.795   3.367 -0.2436 -0.4668 -1.0676
 6862WAT     H221106   1.652   5.893   3.300 -1.7393 -0.9734  0.2496
 6863WAT      O21107   1.969   1.569   3.718  0.2662 -0.1984 -0.0141
 6863WAT     H121108   1.895   1.510   3.734  0.0327  0.4924  1.7511
 6863WAT     H221109   1.996   1.597   3.806  0.9437  1.6039 -0.7514
 6864WAT      O21110   0.224   0.922   2.720  0.2028  0.7830 -0.0647
 6864WAT     H121111   0.170   0.866   2.777 -0.0591  0.3327 -0.7441
 6864WAT     H221112   0.262   0.986   2.780  0.8321 -0.3540  0.8068
 6865WAT      O21113   1.835   0.723   3.083  0.0446 -0.2174 -0.2799
 6865WAT     H121114   1.851   0.674   3.002  3.4711  0.0842  0.0631
 6865WAT     H221115   1.917   0.715   3.132 -0.0294  3.8896  0.8472
 6866WAT      O21116   2.091   0.003   3.762  0.1465 -0.2720 -0.1251
 6866WAT     H121117   2.052  -0.084   3.752  1.2459 -1.0237  1.5941
 6866WAT     H221118   2.023   0.054   3.807 -1.1766  0.3630 -2.6258
 6867WAT      O21119   1.107   1.492   2.848 -0.2849 -0.0266  0.7447
 6867WAT     H121120   1.051   1.447   2.911  0.0552 -3.4495 -1.1381
 6867WAT     H221121   1.189   1.441   2.848  0.5881  1.2822 -0.7437
 6868WAT      O21122   2.278   1.465   1.429  0.1458  0.3058  0.3355
 6868WAT     H121123   2.279   1.476   1.525 -0.8576 -1.0404  0.5330
 6868WAT     H221124   2.292   1.371   1.416  0.2608  0.4819 -0.8374
 6869WAT      O21125   2.456   1.517   2.459  0.3708  0.1789 -0.0993
 6869WAT     H121126   2.523   1.452   2.477 -0.8927 -0.7461  1.5336
 6869WAT     H221127   2.407   1.524   2.541 -1.1064  1.2885 -1.0363
 6870WAT      O21128   1.485   2.998   2.374  0.3920 -0.4411 -0.1029
 6870WAT     H121129   1.489   2.991   2.278  1.6612  0.2560 -0.1188
 6870WAT     H221130   1.569   2.963   2.404  0.0672 -0.5088  0.7561
 6871WAT      O21131   6.924   1.883   2.447 -0.0852  0.1930  0.0960
 6871WAT     H121132   6.884   1.959   2.405 -0.4065  0.3885  0.7497
 6871WAT     H221133   6.904   1.893   2.540  0.0734 -0.5674  0.2199
 6872WAT      O21134   1.116   4.912   2.871  0.2446  0.5061 -0.0405
 6872WAT     H121135   1.111   4.945   2.960  1.6366 -1.5608  0.8875
 6872WAT     H221136   1.038   4.946   2.828  0.6719  3.4181  1.2563
 6873WAT      O21137   2.587   1.065   2.900 -0.0103  0.3035 -0.2083
 6873WAT     H121138   2.571   1.151   2.860  1.1086 -0.4673 -2.4881
 6873WAT     H221139   2.501   1.023   2.898 -0.4128  1.0720  0.2254
 6874WAT      O21140   2.421   1.822   4.564  0.2286 -0.0322 -0.3493
 6874WAT     H121141   2.349   1.799   4.621 -0.6073 -0.1661 -1.4217
 6874WAT     H221142   2.456   1.904   4.600 -1.3296  0.7624 -0.5858
 6875WAT      O21143   2.161   0.749   2.541  0.2464  0.2019  0.0146
 6875WAT     H121144   2.174   0.680   2.606 -0.1151 -2.7674 -2.7833
 6875WAT     H221145   2.249   0.773   2.514  0.3833 -0.9001 -0.5876
 6876WAT      O21146   3.662   2.467   5.372  0.1945  0.3177 -0.3195
 6876WAT     H121147   3.688   2.505   5.288 -0.1001  1.4717  0.0979
 6876WAT     H221148   3.573   2.497   5.386  0.5654  0.9532  0.8568
 6877WAT      O21149   3.073   0.341   4.353  0.2346  0.0020  0.3068
 6877WAT     H121150   3.131   0.369   4.283  0.7626  0.0405  0.7482
 6877WAT     H221151   2.990   0.321   4.310  0.0212  1.6259 -0.1082
 6878WAT      O21152   1.721   0.873   4.144 -0.0556  0.5444  0.2878
 6878WAT     H121153   1.714   0.808   4.214  1.8017 -0.0698 -0.0339
 6878WAT     H221154   1.630   0.893   4.121 -0.7171 -1.7981  0.5423
 6879WAT      O21155   3.133   2.611   4.619  0.2407  0.2195 -0.7150
 6879WAT     H121156   3.116   2.684   4.678 -1.7006  0.0765 -1.0386
 6879WAT     H221157   3.109   2.533   4.670 -1.1392  0.0751 -1.5398
 6880WAT      O21158   6.882   5.255   2.423 -0.2413 -0.0085  0.6068
 6880WAT     H121159   6.868   5.165   2.455  1.1090 -1.2176 -1.9257
 6880WAT     H221160   6.802   5.275   2.374 -0.4513  0.1035  0.9901
 6881WAT      O21161   2.600   1.341   1.705  0.7896  0.5188 -0.6147
 6881WAT     H121162   2.639   1.317   1.789 -0.4192 -1.5112 -0.5738
 6881WAT     H221163   2.518   1.384   1.728  0.9355  0.8834 -0.7614
 6882WAT      O21164   2.202   0.639   4.912  0.2057 -0.1958 -0.0792
 6882WAT     H121165   2.188   0.557   4.959  3.8103 -1.0651 -0.2041
 6882WAT     H221166   2.172   0.707   4.972 -0.6864 -1.4880  1.0019
 6883WAT      O21167   6.081   5.394   1.700  0.0345  0.4113  0.4119
 6883WAT     H121168   6.011   5.420   1.641  2.5629  2.1248 -2.1127
 6883WAT     H221169   6.057   5.431   1.785 -2.1443  0.7752 -0.3144
 6884WAT      O21170   2.293   1.464   2.245  0.2139  0.5520  0.6822
 6884WAT     H121171   2.343   1.486   2.323  1.7541 -0.0218 -0.1194
 6884WAT     H221172   2.218   1.415   2.277  1.6587 -1.0808  1.6882
 6885WAT      O21173   6.169   6.025   3.348 -0.4556  0.2929 -0.7045
 6885WAT     H121174   6.141   6.066   3.430 -1.9257 -0.0391 -1.0102
 6885WAT     H221175   6.104   6.054   3.284  1.1414  1.2656 -1.9868
 6886WAT      O21176   4.039   4.542   2.777  0.5308  0.0237  0.3369
 6886WAT     H121177   4.063   4.626   2.737 -0.7379  0.4864  0.5065
 6886WAT     H221178   4.086   4.541   2.860  2.5260 -0.5700 -0.7344
 6887WAT      O21179   0.863   5.618   2.265 -0.5799  0.0208 -0.4427
 6887WAT     H121180   0.786   5.674   2.252  0.0693  0.6214 -1.9687
 6887WAT     H221181   0.866   5.563   2.187  0.0497 -0.6142  0.0193
 6888WAT      O21182   1.619   1.473   5.045  0.4071 -0.4941 -0.0257
 6888WAT     H121183   1.610   1.559   5.004  0.7606 -1.5499 -2.5494
 6888WAT     H221184   1.712   1.452   5.035  0.5424 -0.7537  1.5504
 6889WAT      O21185   3.331   3.108   5.304 -0.0787 -0.0056 -0.2436
 6889WAT     H121186   3.262   3.041   5.313  0.7385 -1.2582 -2.4045
 6889WAT     H221187   3.385   3.097   5.382 -0.4429 -1.3192 -0.1448
 6890WAT      O21188   2.672   1.241   0.862  0.5068  0.0014 -0.3117
 6890WAT     H121189   2.577   1.238   0.873  0.4731  1.2106 -0.1007
 6890WAT     H221190   2.700   1.314   0.917  1.6997 -0.9877  0.4635
 6891WAT      O21191   1.208   1.899   3.149 -0.5192 -0.0932 -0.1849
 6891WAT     H121192   1.135   1.932   3.201 -1.6768  0.4672 -2.0566
 6891WAT     H221193   1.173   1.892   3.060  1.4048 -0.8540 -0.9488
 6892WAT      O21194   1.893   1.661   2.454 -0.3065  0.2015  0.9560
 6892WAT     H121195   1.854   1.696   2.534 -1.9687  0.1975  0.1826
 6892WAT     H221196   1.822   1.662   2.390  0.2724 -2.1825  0.1823
 6893WAT      O21197   1.329   5.515   2.786  0.4050  0.3522  0.5299
 6893WAT     H121198   1.385   5.441   2.762 -0.7545 -0.9394  1.6646
 6893WAT     H221199   1.260   5.516   2.720 -0.8311 -1.0204  1.7480
 6894WAT      O21200   0.407   4.744   3.489  0.0527  0.0805 -0.0996
 6894WAT     H121201   0.341   4.681   3.516 -0.1122  0.5882  0.7409
 6894WAT     H221202   0.476   4.691   3.448  0.0617 -0.6885  0.8636
 6895WAT      O21203   0.186   0.310   3.189 -0.2190 -0.0878 -0.1057
 6895WAT     H121204   0.213   0.222   3.217  2.6036  1.3684  2.3531
 6895WAT     H221205   0.116   0.334   3.250  0.9019  0.3257  1.0704
 6896WAT      O21206   7.254   5.988   2.568 -0.3740 -0.0094 -0.4895
 6896WAT     H121207   7.342   5.994   2.531 -1.0307 -0.2106 -2.1563
 6896WAT     H221208   7.262   6.027   2.655  1.2220  0.5671 -0.8642
 6897WAT      O21209   1.363   1.809   2.867 -0.3084  0.0228 -0.3422
 6897WAT     H121210   1.327   1.792   2.780 -1.0743  0.2626 -0.0806
 6897WAT     H221211   1.410   1.892   2.857 -0.5754  0.1615 -0.4796
 6898WAT      O21212   7.213   0.444   3.908 -0.3895  0.6641 -0.4558
 6898WAT     H121213   7.156   0.483   3.975 -0.1387 -2.2634  1.6477
 6898WAT     H221214   7.153   0.409   3.842 -1.1741 -1.8599  1.4421
 6899WAT      O21215   0.283   0.630   3.889 -0.1970 -0.6515 -0.0080
 6899WAT     H121216   0.193   0.597   3.881 -0.4120  0.2328 -2.1836
 6899WAT     H221217   0.282   0.712   3.838  1.7441 -0.4136  0.2805
 6900WAT      O21218   4.738   1.476   2.132 -0.1463  0.5611 -0.1663
 6900WAT     H121219   4.650   1.510   2.113 -0.2068  0.8125  0.5379
 6900WAT     H221220   4.753   1.499   2.224  0.6538  0.5071 -0.2792
 6901WAT      O21221   5.583   0.837   3.913 -0.5637  0.6458 -0.2394
 6901WAT     H121222   5.621   0.839   4.001  1.2437 -0.6801 -0.9120
 6901WAT     H221223   5.489   0.827   3.927 -0.1306 -1.7709  1.5781
 6902WAT      O21224   5.073   5.349   2.163 -0.1365 -0.7457  0.0862
 6902WAT     H121225   5.062   5.322   2.254 -1.7307 -0.0846  0.1185
 6902WAT     H221226   5.166   5.368   2.155 -0.3278  1.6100  2.2746
 6903WAT      O21227   0.009   5.496   3.317 -0.1456 -0.6153 -0.5636
 6903WAT     H121228   0.090   5.488   3.367  0.9266 -0.0625 -2.1466
 6903WAT     H221229   0.006   5.417   3.263 -0.5440 -0.5337 -0.6676
 6904WAT      O21230   7.302   5.718   2.081 -0.1157  0.0630 -0.1062
 6904WAT     H121231   7.291   5.806   2.044 -2.2616 -0.4412 -0.8000
 6904WAT     H221232   7.397   5.708   2.090  0.1977  2.3925 -0.1125
 6905WAT      O21233   2.381   0.799   2.771 -0.0190  0.4199 -0.2840
 6905WAT     H121234   2.300   0.818   2.819  0.5777 -1.2660  1.5304
 6905WAT     H221235   2.356   0.728   2.711 -0.3018  1.2062 -1.1229
 6906WAT      O21236   2.035   2.142   2.386 -0.7074  0.1036  0.3754
 6906WAT     H121237   2.122   2.150   2.426 -0.4110 -0.8763 -0.0460
 6906WAT     H221238   2.013   2.231   2.360 -0.0661  0.4543  0.9768
 6907WAT      O21239   1.352   2.107   2.241  0.0984  0.4540 -0.0525
 6907WAT     H121240   1.436   2.105   2.287 -0.0461  0.3775  0.2123
 6907WAT     H221241   1.336   2.016   2.217 -0.2940  0.3350  0.6154
 6908WAT      O21242   1.109   2.147   4.296 -0.8154 -0.3901 -1.0889
 6908WAT     H121243   1.094   2.239   4.316 -1.9204 -0.7792  0.0213
 6908WAT     H221244   1.191   2.126   4.341 -1.2994 -0.2886 -0.1352
 6909WAT      O21245   4.127   1.031   2.714 -0.5845  0.4853 -0.4366
 6909WAT     H121246   4.114   1.041   2.809 -1.0786  1.9271 -0.6410
 6909WAT     H221247   4.217   1.058   2.699 -1.3204  3.0515 -0.7117
 6910WAT      O21248   1.037   5.151   3.767 -1.1925 -0.6814  0.3657
 6910WAT     H121249   0.970   5.151   3.834 -0.5549 -2.7060  1.0693
 6910WAT     H221250   1.119   5.134   3.814 -0.2727  0.9378 -0.5597
 6911WAT      O21251   1.843   1.653   1.911 -0.4430  0.4413 -0.1923
 6911WAT     H121252   1.868   1.744   1.927 -0.9188  0.1130  3.0157
 6911WAT     H221253   1.759   1.643   1.955  0.3845 -1.9657  0.9954
 6912WAT      O21254   1.711   5.992   2.953  0.2437  0.0793  0.2367
 6912WAT     H121255   1.689   6.085   2.943  3.2161  0.9273  0.5932
 6912WAT     H221256   1.635   5.954   2.996 -1.7430  1.9653 -1.3784
 6913WAT      O21257   0.276   1.118   2.892  0.5369 -0.2486 -0.0916
 6913WAT     H121258   0.301   1.209   2.873  1.4467  0.2020  2.7180
 6913WAT     H221259   0.356   1.079   2.927 -0.1822 -1.7811 -0.1102
 6914WAT      O21260   2.618   1.427   3.677  0.1358  0.5153 -0.1532
 6914WAT     H121261   2.591   1.511   3.640  1.1137  0.1983 -1.6734
 6914WAT     H221262   2.701   1.406   3.633 -1.7874 -2.9450 -2.6043
 6915WAT      O21263   6.261   0.213   3.520 -0.4187 -0.2802  0.2847
 6915WAT     H121264   6.319   0.143   3.491 -1.5927 -0.8212 -0.8991
 6915WAT     H221265   6.315   0.269   3.575  2.1116  0.9488 -3.1366
 6916WAT      O21266   3.073   2.802   4.811  0.1506 -0.0637 -0.8549
 6916WAT     H121267   2.982   2.828   4.801  0.0530  0.2226  0.6720
 6916WAT     H221268   3.083   2.783   4.904  2.1355  1.8382 -0.6028
 6917WAT      O21269   1.950   1.179   3.452 -0.3793 -0.3166  0.2434
 6917WAT     H121270   1.968   1.169   3.358 -1.8661 -1.0097  0.0081
 6917WAT     H221271   2.036   1.195   3.491  0.1479  1.1978 -1.3735
 6918WAT      O21272   0.027   0.343   2.615 -0.4013 -0.0193  0.3352
 6918WAT     H121273  -0.055   0.358   2.568  0.0174 -0.4066 -0.5440
 6918WAT     H221274   0.048   0.252   2.598  0.6113  0.2818 -0.1022
 6919WAT      O21275   1.216   2.156   1.705  0.6750  0.1532  0.3518
 6919WAT     H121276   1.243   2.218   1.638 -0.3427 -1.0401 -1.2519
 6919WAT     H221277   1.150   2.204   1.757  2.0166  1.3337  1.0425
 6920WAT      O21278   0.794   1.626   0.554 -0.6567 -0.5113  0.2757
 6920WAT     H121279   0.766   1.570   0.481 -2.5835  0.8053 -0.0819
 6920WAT     H221280   0.819   1.708   0.513  0.0356 -0.3643  0.9728
 6921WAT      O21281   1.749   0.509   4.737  0.1070  0.2409  0.0996
 6921WAT     H121282   1.747   0.563   4.658 -0.7077 -0.4163 -0.3464
 6921WAT     H221283   1.698   0.558   4.801 -0.6229  0.0126 -0.3003
 6922WAT      O21284   2.897   2.566   3.601  0.0674  0.0918 -0.5354
 6922WAT     H121285   2.916   2.521   3.684 -0.0661  1.0435  0.0283
 6922WAT     H221286   2.850   2.646   3.628  1.5637  1.2998 -1.3836
 6923WAT      O21287   6.430   1.056   3.477 -0.0671 -0.4593  0.9105
 6923WAT     H121288   6.521   1.025   3.475  0.2278  0.4205 -0.6339
 6923WAT     H221289   6.430   1.124   3.545 -0.0603 -1.7960  2.2966
 6924WAT      O21290   7.245   5.517   3.594 -0.1238 -0.3205  0.3490
 6924WAT     H121291   7.157   5.509   3.558  0.2296  1.4653 -1.0835
 6924WAT     H221292   7.303   5.507   3.518  0.8241  0.2107  0.9780
 6925WAT      O21293   3.569   0.099   3.716  0.1658 -0.1985 -0.1414
 6925WAT     H121294   3.517   0.080   3.794 -0.7207 -0.6157 -0.8219
 6925WAT     H221295   3.541   0.033   3.652 -2.3803  2.7345 -2.3277
 6926WAT      O21296   1.873   0.679   3.900  0.2817 -0.1312 -0.5436
 6926WAT     H121297   1.826   0.754   3.937  1.2381  0.1130  0.2215
 6926WAT     H221298   1.891   0.704   3.809  0.0755  0.3191 -0.4603
 6927WAT      O21299   1.794   3.285   3.417  0.2392  0.2089 -0.2622
 6927WAT     H121300   1.858   3.245   3.359 -0.9461 -0.6441 -1.0173
 6927WAT     H221301   1.788   3.376   3.387  0.2320 -0.0156 -0.9497
 6928WAT      O21302   0.302   5.417   1.986 -0.2638 -0.0068  0.3105
 6928WAT     H121303   0.374   5.367   2.025  1.7789 -1.6321 -4.7807
 6928WAT     H221304   0.341   5.501   1.962 -0.8311  0.1237 -0.1638
 6929WAT      O21305   1.310   5.547   1.766 -0.1277 -0.2542  0.3568
 6929WAT     H121306   1.328   5.479   1.831  1.7680 -2.5106 -2.3005
 6929WAT     H221307   1.216   5.537   1.747 -0.0091 -1.7371  0.4647
 6930WAT      O21308   2.063   0.413   1.756 -0.6882  0.6753  0.0153
 6930WAT     H121309   2.117   0.479   1.711 -2.6038  2.8952  0.7915
 6930WAT     H221310   2.091   0.418   1.847 -0.0951 -0.4245 -0.0895
 6931WAT      O21311   0.270   1.068   3.348  0.1263  0.0791  0.2677
 6931WAT     H121312   0.269   0.981   3.387  0.1260 -0.3017 -0.5559
 6931WAT     H221313   0.178   1.088   3.331  0.2126 -0.4259 -0.9413
 6932WAT      O21314   3.524   5.059   2.374  0.2942  0.1763 -0.2045
 6932WAT     H121315   3.613   5.090   2.387 -0.0091  1.7320 -1.5344
 6932WAT     H221316   3.477   5.087   2.453  0.6930  0.4300 -0.0546
 6933WAT      O21317   1.323   6.041   3.520 -0.5582  0.5952 -0.2146
 6933WAT     H121318   1.352   5.975   3.582  0.2098  0.6566 -0.5059
 6933WAT     H221319   1.267   5.993   3.459 -0.1746  0.2514 -0.3001
 6934WAT      O21320   0.930   3.712   3.268 -0.1588  0.0406  0.3428
 6934WAT     H121321   0.896   3.766   3.339  0.1281 -0.5446  0.9300
 6934WAT     H221322   1.024   3.705   3.286 -0.0490  0.0714 -0.2111
 6935WAT      O21323   1.842   5.649   1.480  0.0637 -0.5415  0.0072
 6935WAT     H121324   1.864   5.565   1.519 -0.6938 -0.9420 -0.4171
 6935WAT     H221325   1.778   5.629   1.412  0.2274  0.3228 -0.4228
 6936WAT      O21326   2.241   0.479   1.483  0.1560 -0.2846  0.3670
 6936WAT     H121327   2.303   0.522   1.542 -0.4785  0.4001  0.5536
 6936WAT     H221328   2.294   0.448   1.410  1.0332 -1.5327  1.4941
 6937WAT      O21329   3.695   5.547   2.265 -0.7779  0.0028 -0.2736
 6937WAT     H121330   3.756   5.503   2.207  0.2812  1.6750 -0.4852
 6937WAT     H221331   3.608   5.525   2.230 -0.1730  1.4259 -2.8788
 6938WAT      O21332   0.632   0.236   3.213 -0.5117 -0.2506  0.4613
 6938WAT     H121333   0.648   0.331   3.215  1.0187 -0.4197 -1.2891
 6938WAT     H221334   0.564   0.224   3.147  0.6050 -0.4846 -0.6838
 6939WAT      O21335   1.910   1.347   1.738 -0.1350  0.1732  0.0213
 6939WAT     H121336   1.869   1.421   1.693 -0.0729  0.1822 -0.0193
 6939WAT     H221337   1.934   1.381   1.824 -1.9862 -0.3423  0.7964
 6940WAT      O21338   3.248   0.393   2.355 -0.9346  0.3884  0.6002
 6940WAT     H121339   3.241   0.393   2.451  1.2016 -0.2333  0.8101
 6940WAT     H221340   3.338   0.420   2.338 -1.5358  1.3435 -1.2924
 6941WAT      O21341   3.496   1.621   0.493  0.1555  0.6230  0.2795
 6941WAT     H121342   3.427   1.605   0.429  1.5634 -0.1882 -1.1096
 6941WAT     H221343   3.478   1.560   0.564  1.4313 -2.2908 -1.7313
 6942WAT      O21344   1.925   5.627   5.162  0.5341  0.4975 -0.1651
 6942WAT     H121345   1.970   5.562   5.107  1.3415  1.8667 -1.1875
 6942WAT     H221346   1.962   5.711   5.135  0.6227  1.2874  2.1718
 6943WAT      O21347   2.227   1.790   1.317 -0.1733  0.1143 -0.1084
 6943WAT     H121348   2.166   1.722   1.343 -0.9507  0.4438 -0.9986
 6943WAT     H221349   2.175   1.851   1.264  1.4012 -0.9437 -3.1634
 6944WAT      O21350   0.247   0.127   3.365  0.1280 -0.0418 -0.1340
 6944WAT     H121351   0.322   0.075   3.395  1.9188  1.3997 -1.8445
 6944WAT     H221352   0.226   0.184   3.438  1.6996  0.5603 -0.1253
 6945WAT      O21353   1.983   1.441   1.981 -0.4524  0.2349  0.1766
 6945WAT     H121354   2.078   1.454   1.974 -0.3325  0.0743  1.3346
 6945WAT     H221355   1.946   1.528   1.966  0.0460  0.8986  2.4286
 6946WAT      O21356   0.541   5.513   2.290 -0.1851  0.1402 -0.1447
 6946WAT     H121357   0.566   5.601   2.261  2.0446 -0.4354 -0.1710
 6946WAT     H221358   0.476   5.528   2.359 -0.1127  1.7776 -0.3835
 6947WAT      O21359   7.198   4.871   1.762 -0.3306 -0.1229  0.1894
 6947WAT     H121360   7.239   4.908   1.684 -0.8985 -1.8622 -0.9905
 6947WAT     H221361   7.250   4.906   1.835  1.2503  0.2336 -1.0458
 6948WAT      O21362   2.111   1.033   2.348 -0.2718  0.1244  0.1700
 6948WAT     H121363   2.107   1.111   2.293  0.6368 -0.9323 -1.4802
 6948WAT     H221364   2.034   0.982   2.324  1.3417 -1.4767 -2.0462
 6949WAT      O21365   6.064   6.068   3.603 -0.0598  0.3870 -0.0512
 6949WAT     H121366   6.099   5.984   3.634  0.2271  0.1498 -0.9909
 6949WAT     H221367   5.973   6.069   3.634 -0.0085 -0.1859  0.1293
 6950WAT      O21368   4.804   0.923   4.353  0.0460  0.4538  0.0497
 6950WAT     H121369   4.776   0.854   4.292  1.9474 -0.9894  0.7131
 6950WAT     H221370   4.825   0.997   4.297  1.1322 -0.6274 -1.0364
 6951WAT      O21371   3.454   5.785   1.702 -0.3547  0.0157 -0.3778
 6951WAT     H121372   3.493   5.840   1.770 -0.1288 -0.4721 -0.1045
 6951WAT     H221373   3.496   5.700   1.714 -0.2692 -0.0608 -1.1674
 6952WAT      O21374   1.461   1.397   2.061 -0.3701 -0.4361  0.2245
 6952WAT     H121375   1.411   1.479   2.061 -0.8024 -0.6954  0.2059
 6952WAT     H221376   1.545   1.420   2.099 -0.4546  0.0404  0.1270
 6953WAT      O21377   2.138   5.480   0.079 -0.1527 -0.1841 -0.0634
 6953WAT     H121378   2.234   5.474   0.076 -0.2152 -1.4702 -0.1790
 6953WAT     H221379   2.111   5.463  -0.011 -0.5304 -1.0578  0.2064
 6954WAT      O21380   1.056   4.930   2.281 -0.2184 -0.1338 -0.1571
 6954WAT     H121381   1.046   4.874   2.358 -3.8469  0.0539 -0.3366
 6954WAT     H221382   1.053   4.869   2.207 -0.2775 -0.0105 -0.2569
 6955WAT      O21383   3.502   0.346   0.904 -0.1854 -0.2352 -0.0795
 6955WAT     H121384   3.484   0.266   0.853 -0.0775  0.7187 -1.6913
 6955WAT     H221385   3.423   0.359   0.956 -1.4032  0.1210 -1.9197
 6956WAT      O21386   1.932   5.742   2.994  0.0434  0.0222  0.4372
 6956WAT     H121387   1.985   5.722   2.917 -0.3644  0.1537  0.1184
 6956WAT     H221388   1.843   5.718   2.969 -0.2464  0.9761  0.5151
 6957WAT      O21389   2.971   4.762   5.401  0.1598  0.0682  0.9122
 6957WAT     H121390   3.054   4.779   5.357 -1.1870  2.4619 -0.9509
 6957WAT     H221391   2.941   4.679   5.364  0.7880  0.2028  0.0571
 6958WAT      O21392   0.419   5.662   1.926 -0.2182 -0.2737 -0.0753
 6958WAT     H121393   0.451   5.700   1.844  0.1503  0.3830  0.3594
 6958WAT     H221394   0.426   5.733   1.990 -0.5091 -0.7716  0.5256
 6959WAT      O21395   6.235   0.009   2.043 -0.1381 -0.2342  0.1528
 6959WAT     H121396   6.283  -0.009   2.125  0.0367 -1.4808 -0.2130
 6959WAT     H221397   6.259   0.100   2.022 -0.7901  0.3966  1.8744
 6960WAT      O21398   2.690   0.293   2.145  0.0129  0.2867 -0.0676
 6960WAT     H121399   2.759   0.347   2.183 -0.9997  0.2121  2.0008
 6960WAT     H221400   2.735   0.213   2.118  0.7916  0.3197  1.0615
 6961WAT      O21401   1.073   5.139   1.945  0.0995  0.1381 -0.1169
 6961WAT     H121402   1.064   5.160   2.038  1.9886 -0.0332  0.1367
 6961WAT     H221403   1.117   5.215   1.908  1.4234 -0.7374 -0.4006
 6962WAT      O21404   2.102   6.007   3.082 -0.7958 -0.6899 -0.0403
 6962WAT     H121405   2.007   5.998   3.076 -0.8897 -0.0001  0.3149
 6962WAT     H221406   2.134   5.993   2.993 -1.0953 -2.3260  0.0686
 6963WAT      O21407   2.248   6.013   1.558  0.2999 -0.1181  0.7619
 6963WAT     H121408   2.237   6.107   1.545 -1.2127 -0.4361 -0.5688
 6963WAT     H221409   2.169   5.974   1.522  1.9061 -2.0665 -0.9109
 6964WAT      O21410   0.779   5.309   3.107 -0.1447 -0.3602 -0.1255
 6964WAT     H121411   0.703   5.279   3.156  0.9763 -2.3612  0.5052
 6964WAT     H221412   0.850   5.310   3.171  0.6920  0.0556 -1.0190
 6965WAT      O21413   0.649   0.143   2.706 -0.3309 -0.4394 -0.0323
 6965WAT     H121414   0.684   0.226   2.736  0.1847 -0.9294  0.7569
 6965WAT     H221415   0.573   0.166   2.653 -0.6053  0.4967  0.7567
 6966WAT      O21416   2.734   5.052   2.068  0.0657 -0.2326  0.3581
 6966WAT     H121417   2.728   4.957   2.075  0.9802 -0.2083  2.1552
 6966WAT     H221418   2.667   5.085   2.128 -0.1596  0.2756 -0.1579
 6967WAT      O21419   3.643   1.836   2.545  0.0543  0.1854 -0.3244
 6967WAT     H121420   3.588   1.764   2.515 -0.3785 -0.0929  1.0658
 6967WAT     H221421   3.703   1.796   2.607  2.0449  0.4423 -1.9920
 6968WAT      O21422   1.984   0.778   1.558 -0.2961  0.4429 -0.1905
 6968WAT     H121423   1.910   0.795   1.615  1.4056 -0.6211  2.5227
 6968WAT     H221424   1.964   0.695   1.516 -1.7986  1.4857 -1.6512
 6969WAT      O21425   0.180   1.014   2.482 -0.3801 -0.0198  1.1383
 6969WAT     H121426   0.231   0.983   2.557  1.5648  2.5196  0.9958
 6969WAT     H221427   0.127   1.085   2.517 -1.0036 -0.1516  0.4890
 6970WAT      O21428   2.528   4.534   3.120  0.3158 -0.1950 -0.1400
 6970WAT     H121429   2.595   4.552   3.053 -0.8826 -0.8055 -1.5605
 6970WAT     H221430   2.452   4.584   3.091 -0.0712 -0.0372  1.1011
 6971WAT      O21431   6.489   2.986   2.196 -0.2355 -0.6060  0.2478
 6971WAT     H121432   6.555   2.921   2.172 -0.1820 -0.3789 -0.2327
 6971WAT     H221433   6.451   3.013   2.112 -0.3040 -0.0682  0.4508
 6972WAT      O21434   0.176   4.403   3.028  0.1634  0.4693 -0.3770
 6972WAT     H121435   0.243   4.408   3.096  2.6584  2.4518 -2.7518
 6972WAT     H221436   0.093   4.414   3.075  1.5257 -0.7447  2.5484
 6973WAT      O21437   4.004   2.000   2.451 -0.0877  0.6994  0.4941
 6973WAT     H121438   4.024   1.912   2.483  0.8963  0.3646 -0.8982
 6973WAT     H221439   3.925   1.989   2.399 -2.6304  1.5326  3.8577
 6974WAT      O21440   0.652   2.334   1.926 -0.2343 -0.0444 -0.0282
 6974WAT     H121441   0.728   2.326   1.984 -0.8799  1.5891  1.1173
 6974WAT     H221442   0.588   2.273   1.961 -0.6046  0.9015  1.0229
 6975WAT      O21443   3.773   1.702   2.007 -0.0126  0.1385  0.8018
 6975WAT     H121444   3.735   1.625   2.048 -0.2782  0.0484  0.3854
 6975WAT     H221445   3.717   1.775   2.036 -0.6679 -0.0258 -0.0125
 6976WAT      O21446   1.798   0.052   3.426 -0.5125  0.0142 -0.1705
 6976WAT     H121447   1.814  -0.042   3.413 -1.2392  0.0536 -1.5559
 6976WAT     H221448   1.706   0.057   3.451 -0.2965  0.3123  0.5723
 6977WAT      O21449   2.417   5.492   0.056  0.3212 -0.4086 -0.5408
 6977WAT     H121450   2.432   5.403   0.088 -0.0554 -1.3125 -2.6933
 6977WAT     H221451   2.502   5.519   0.021  0.2513 -0.2211 -0.5634
 6978WAT      O21452   5.738   0.036   2.903  0.1045 -0.2349 -0.2047
 6978WAT     H121453   5.715   0.120   2.942 -0.3680 -0.4709  0.0408
 6978WAT     H221454   5.763  -0.019   2.977  0.0780 -0.4129 -0.3272
 6979WAT      O21455   1.245   0.560   2.091 -0.1336  0.2009 -0.2514
 6979WAT     H121456   1.161   0.534   2.130 -0.4460 -0.0504 -1.0796
 6979WAT     H221457   1.285   0.616   2.157 -0.8966  0.2137  0.2124
 6980WAT      O21458   1.075   0.789   1.954 -0.0505 -0.0035  0.2646
 6980WAT     H121459   1.130   0.842   1.895 -0.3352 -2.0646 -1.9776
 6980WAT     H221460   1.137   0.751   2.016  0.4179  1.2016  0.5781
 6981WAT      O21461   5.964   4.979   3.400 -0.0817 -0.0177 -0.3572
 6981WAT     H121462   5.956   5.027   3.317  1.7047  0.4784 -0.2900
 6981WAT     H221463   5.937   4.890   3.378  0.2348  0.1336 -1.4504
 6982WAT      O21464   0.963   0.119   2.639 -0.7726 -0.3110 -0.4572
 6982WAT     H121465   0.867   0.121   2.631 -0.7950 -1.3983 -0.6631
 6982WAT     H221466   0.985   0.202   2.679 -1.8202 -0.0856 -0.3062
 6983WAT      O21467   0.225   0.228   2.354  0.1527  0.2643 -0.1712
 6983WAT     H121468   0.152   0.291   2.356  0.4885  0.7530 -1.9003
 6983WAT     H221469   0.212   0.180   2.273  1.7676  0.3690 -0.5107
 6984WAT      O21470   6.853   4.550   2.877  0.4641  0.0737 -0.0145
 6984WAT     H121471   6.904   4.632   2.876  0.2768  0.2717  2.1096
 6984WAT     H221472   6.802   4.555   2.958  0.1835 -2.0012 -0.0197
 6985WAT      O21473   7.236   0.060   2.361  0.0449  0.0602 -0.3630
 6985WAT     H121474   7.200  -0.029   2.355  0.2260  0.0333 -1.1918
 6985WAT     H221475   7.172   0.108   2.413 -0.6020 -0.2815 -0.8313
 6986WAT      O21476   1.033   5.192   2.245  0.1714 -0.1736  0.0100
 6986WAT     H121477   1.113   5.226   2.285  0.7463 -0.6444 -0.7258
 6986WAT     H221478   1.034   5.099   2.265  0.7428 -0.5230 -1.5271
 6987WAT      O21479   1.993   1.100   1.454  0.5583 -0.4550 -0.3807
 6987WAT     H121480   1.995   1.189   1.421  1.3297 -0.5762 -0.6845
 6987WAT     H221481   1.904   1.088   1.486 -0.2795 -0.3889 -2.5416
 6988WAT      O21482   3.606   2.361   1.717 -0.0913 -0.4866 -0.5183
 6988WAT     H121483   3.630   2.450   1.741  0.2423 -0.9152  0.8229
 6988WAT     H221484   3.680   2.330   1.664 -0.0395 -0.0811 -0.6833
 6989WAT      O21485   1.918   4.224   1.677  0.1873  0.5285 -0.0341
 6989WAT     H121486   1.831   4.186   1.685  0.8836 -1.3492 -0.7421
 6989WAT     H221487   1.912   4.281   1.600 -1.2218  3.0549  1.8034
 6990WAT      O21488   1.458   5.668   2.548  0.1845 -0.2415  0.2689
 6990WAT     H121489   1.443   5.573   2.549 -0.0284 -0.2169  1.7718
 6990WAT     H221490   1.370   5.705   2.556  0.3648  0.0389  1.0708
 6991WAT      O21491   2.637   4.659   0.201  0.0317 -0.0735 -0.2014
 6991WAT     H121492   2.723   4.684   0.165 -0.1692  0.3861 -0.3745
 6991WAT     H221493   2.600   4.742   0.233 -0.7484 -0.1080 -0.9928
 6992WAT      O21494   2.025   0.147   2.606  0.1771  0.3459 -0.7744
 6992WAT     H121495   2.051   0.183   2.691 -0.6462  0.8020 -0.7022
 6992WAT     H221496   2.107   0.118   2.565  0.5999  0.3038  0.0885
 6993WAT      O21497   1.130   0.027   1.721  0.2599 -0.2959 -0.1902
 6993WAT     H121498   1.136   0.112   1.677 -2.0928 -0.6514 -1.3843
 6993WAT     H221499   1.198  -0.026   1.680  1.4946  0.8551  0.2907
 6994WAT      O21500   6.055   6.008   1.912 -0.1177 -0.4155 -0.2995
 6994WAT     H121501   6.124   6.049   1.965  0.3038  0.6568 -1.6280
 6994WAT     H221502   6.077   6.031   1.822 -2.8642  1.0224 -0.7033
 6995WAT      O21503   0.210   0.392   3.590  0.0995 -0.0154 -0.4601
 6995WAT     H121504   0.269   0.452   3.544  0.2590 -0.8365 -1.3566
 6995WAT     H221505   0.230   0.405   3.682 -1.0591  2.5645 -0.4591
 6996WAT      O21506   1.685   5.642   2.976 -0.2882 -0.2013  0.1740
 6996WAT     H121507   1.676   5.654   3.071 -0.1755  0.0595  0.1529
 6996WAT     H221508   1.661   5.727   2.939 -0.7021 -0.4140 -0.0544
 6997WAT      O21509   6.992   0.632   3.926  0.7066 -0.6884 -0.1518
 6997WAT     H121510   6.999   0.722   3.893  0.4065 -1.6621 -3.2120
 6997WAT     H221511   6.907   0.629   3.969  0.4270  0.3320 -0.5962
 6998WAT      O21512   6.062   0.878   2.804 -0.2864  0.5684  0.7442
 6998WAT     H121513   6.008   0.957   2.809 -2.9228 -1.1355  1.0558
 6998WAT     H221514   6.040   0.829   2.883  1.3398 -0.4962  0.5863
 6999WAT      O21515   2.035   2.842   3.504 -0.1158  0.1612 -0.1238
 6999WAT     H121516   2.073   2.929   3.492  0.5242 -0.1318 -0.2252
 6999WAT     H221517   1.957   2.842   3.449  0.6119  0.2087 -1.1760
 7000WAT      O21518   2.372   5.806   1.414  0.0935 -0.2337  0.2511
 7000WAT     H121519   2.339   5.893   1.436 -2.2763 -0.4133 -2.2169
 7000WAT     H221520   2.462   5.822   1.386 -0.2259  1.3928  0.0404
 7001WAT      O21521   0.564   1.765   1.958  0.2254  0.2685  0.0475
 7001WAT     H121522   0.582   1.678   1.923  0.4238  0.4696 -0.3606
 7001WAT     H221523   0.537   1.816   1.881  0.9495  0.7926  0.1319
 7002WAT      O21524   2.198   3.664   3.297  0.0721  0.3868  0.2306
 7002WAT     H121525   2.278   3.683   3.249 -0.4498  2.3874  0.0594
 7002WAT     H221526   2.154   3.598   3.244  2.2302 -1.8842  1.0979
 7003WAT      O21527   3.232   2.133   2.654  0.6241 -0.4521 -0.4549
 7003WAT     H121528   3.165   2.112   2.718  1.2691  0.5976  0.6140
 7003WAT     H221529   3.306   2.164   2.706  1.1513  0.4698 -1.6881
 7004WAT      O21530   1.626   1.773   3.421  0.4098 -0.3167 -0.5566
 7004WAT     H121531   1.562   1.755   3.352  2.0401 -2.4699 -1.6057
 7004WAT     H221532   1.673   1.850   3.389  1.4689 -1.5679 -2.1794
 7005WAT      O21533   1.815   1.170   5.696 -0.2833 -0.0844 -0.6543
 7005WAT     H121534   1.797   1.084   5.733  0.1960 -0.0264 -0.2663
 7005WAT     H221535   1.863   1.216   5.765 -1.6663  0.9652 -0.3341
 7006WAT      O21536   3.544   0.583   2.125  0.0489 -0.2606 -0.3024
 7006WAT     H121537   3.540   0.539   2.210  1.8273  0.6518  0.3124
 7006WAT     H221538   3.489   0.660   2.135 -0.8260 -0.8538 -0.4481
 7007WAT      O21539   2.075   1.799   2.278 -0.3773  0.1939 -0.0407
 7007WAT     H121540   2.145   1.845   2.325 -0.7506  1.8821 -1.0482
 7007WAT     H221541   2.052   1.725   2.334  1.8280 -0.0895  0.5792
 7008WAT      O21542   2.345   5.213   1.570  0.3124  0.1554  0.2819
 7008WAT     H121543   2.382   5.300   1.551 -0.0453  0.2719  0.1075
 7008WAT     H221544   2.327   5.176   1.484 -0.2501  0.2211  0.3673
 7009WAT      O21545   1.285   1.007   2.142  0.4394 -0.0554  0.0315
 7009WAT     H121546   1.379   1.000   2.130  0.5444 -0.2480  0.9531
 7009WAT     H221547   1.250   1.011   2.053  1.1882 -1.4897 -0.3425
 7010WAT      O21548   0.974   3.339   2.556  0.7240 -0.2880 -0.0587
 7010WAT     H121549   1.024   3.403   2.506 -0.1145  1.3718  1.1389
 7010WAT     H221550   0.882   3.360   2.538  0.3785  0.6372  2.3764
 7011WAT      O21551   1.765   1.101   1.613  0.0558  0.1734 -0.0567
 7011WAT     H121552   1.796   1.167   1.675  0.6802  0.1086 -0.2982
 7011WAT     H221553   1.781   1.017   1.657 -1.3658  0.1867  0.5419
 7012WAT      O21554   2.703   1.759   2.613 -0.5838 -1.0048 -0.2009
 7012WAT     H121555   2.793   1.745   2.584 -0.7061 -1.7107 -0.2666
 7012WAT     H221556   2.662   1.809   2.543  0.7409  2.6762  1.4417
 7013WAT      O21557   6.427   0.538   2.466 -0.0139  0.2717  0.2069
 7013WAT     H121558   6.379   0.592   2.403  0.5081  0.7742  0.2264
 7013WAT     H221559   6.515   0.530   2.428 -0.0851 -0.5734  0.2034
 7014WAT      O21560   1.531   5.246   2.010 -0.9059  0.1371 -0.1961
 7014WAT     H121561   1.604   5.185   1.998  0.6946  1.3577  2.4376
 7014WAT     H221562   1.455   5.190   2.020  0.5036 -1.5316  2.2006
 7015WAT      O21563   2.117   2.408   3.660 -0.0304 -0.0251 -0.2190
 7015WAT     H121564   2.076   2.377   3.579 -1.3249 -0.6959  0.6633
 7015WAT     H221565   2.128   2.328   3.713  0.2844  0.4784  0.4869
 7016WAT      O21566   1.344   5.022   1.971 -0.0372 -0.4614  0.0247
 7016WAT     H121567   1.350   4.955   1.903 -1.9239 -0.9728  0.3000
 7016WAT     H221568   1.262   5.067   1.953  1.2039  1.8694 -0.1712
 7017WAT      O21569   1.035   1.651   1.130  0.5499  0.1307 -0.1136
 7017WAT     H121570   1.123   1.678   1.105 -0.1741  2.0717 -0.6762
 7017WAT     H221571   0.978   1.687   1.063 -0.6637 -1.5876 -0.0870
 7018WAT      O21572   5.970   2.913   3.833 -0.2778  0.1835  0.1509
 7018WAT     H121573   6.055   2.923   3.876 -0.6884 -0.8005  1.2256
 7018WAT     H221574   5.977   2.831   3.785  0.0301  1.0646 -1.4072
 7019WAT      O21575   2.492   1.863   3.070  0.5572 -0.1857 -0.3573
 7019WAT     H121576   2.502   1.891   2.979 -0.7591 -1.7016 -1.0191
 7019WAT     H221577   2.428   1.924   3.107  0.2616 -0.2478 -0.7690
 7020WAT      O21578   2.121   5.988   2.819  0.2099 -0.3841  0.6197
 7020WAT     H121579   2.180   5.971   2.746  0.2876 -1.6487  0.9484
 7020WAT     H221580   2.035   5.960   2.787 -0.3256  1.8135  0.0026
 7021WAT      O21581   0.736   1.417   1.364 -0.2359 -0.0635  0.0237
 7021WAT     H121582   0.711   1.336   1.409 -0.4110  0.4998  0.9746
 7021WAT     H221583   0.656   1.445   1.320  0.0458 -0.8379 -1.0034
 7022WAT      O21584   6.822   5.559   3.762 -0.5166  0.2032 -0.8428
 7022WAT     H121585   6.908   5.545   3.801 -0.1517  1.4861 -1.1262
 7022WAT     H221586   6.795   5.473   3.730  0.9586 -0.0913 -1.3437
 7023WAT      O21587   2.088   1.660   1.013 -0.6543  0.4822  0.7643
 7023WAT     H121588   2.011   1.716   1.026 -0.1336  1.6123 -0.6765
 7023WAT     H221589   2.058   1.592   0.952 -0.5735  0.8293  0.3298
 7024WAT      O21590   2.131   4.697   0.670  0.2985 -0.1802  0.4863
 7024WAT     H121591   2.037   4.714   0.666  0.5713  1.1642 -1.0341
 7024WAT     H221592   2.159   4.739   0.751 -0.3357 -0.2455  0.7452
 7025WAT      O21593   2.052   5.225   0.877 -0.4640 -0.2421 -0.5124
 7025WAT     H121594   2.056   5.236   0.782  1.7744 -1.1215 -0.5606
 7025WAT     H221595   2.100   5.144   0.895  0.6978  0.8030  1.4971
 7026WAT      O21596   1.252   2.475   0.312 -0.5110  0.1293 -0.2578
 7026WAT     H121597   1.172   2.524   0.291  2.0013  4.2939 -1.4018
 7026WAT     H221598   1.287   2.449   0.228 -0.4333 -1.3595  0.2113
 7027WAT      O21599   2.642   0.610   2.139 -0.0640 -0.5569 -0.2025
 7027WAT     H121600   2.704   0.573   2.203 -1.4238 -0.2759  1.3386
 7027WAT     H221601   2.615   0.693   2.177 -2.5265 -1.3517 -0.0573
 7028WAT      O21602   1.803   0.195   0.092 -0.0345  0.2819 -0.2411
 7028WAT     H121603   1.722   0.150   0.068  0.3249 -0.4515 -0.1021
 7028WAT     H221604   1.777   0.286   0.103 -0.5199  0.3970 -1.9365
 7029WAT      O21605   2.552   0.420   0.521 -0.3680 -0.1321 -0.1275
 7029WAT     H121606   2.477   0.362   0.517 -0.3581 -0.1899  0.4153
 7029WAT     H221607   2.618   0.371   0.570 -1.0449  1.0560  2.1356
 7030WAT      O21608   1.410   0.406   1.366 -0.2034  1.0598  0.6387
 7030WAT     H121609   1.395   0.414   1.271 -0.6646 -2.1075  0.3600
 7030WAT     H221610   1.342   0.461   1.405 -0.5475  1.7430 -0.8509
 7031WAT      O21611   2.085   5.716   2.746  0.3157  0.2495 -0.0771
 7031WAT     H121612   2.023   5.751   2.682 -0.5559 -0.2191  0.4860
 7031WAT     H221613   2.171   5.749   2.717 -0.0738  0.1871 -1.3770
 7032WAT      O21614   0.274   4.539   1.923  0.6274 -0.2147 -0.4066
 7032WAT     H121615   0.279   4.474   1.993  0.2186  0.0910 -0.0894
 7032WAT     H221616   0.220   4.610   1.959 -1.6178 -1.0822 -1.8541
 7033WAT      O21617   1.449   0.468   1.947 -0.5432  0.1110  0.0903
 7033WAT     H121618   1.385   0.513   2.003 -0.1155  2.9362 -1.5007
 7033WAT     H221619   1.419   0.377   1.945 -3.9423  1.0824  0.2386
 7034WAT      O21620   0.408   1.665   2.650 -0.5153 -0.2355  0.4844
 7034WAT     H121621   0.416   1.709   2.734  0.4741 -0.0501  0.3120
 7034WAT     H221622   0.499   1.655   2.620 -0.8462 -0.4181 -0.4934
 7035WAT      O21623   2.684   2.325   1.623 -0.3182 -0.4691  0.1424
 7035WAT     H121624   2.657   2.276   1.545  1.5079 -1.6063  0.1786
 7035WAT     H221625   2.779   2.317   1.626 -0.3488 -0.7959  2.7035
 7036WAT      O21626   7.134   5.521   2.189 -0.4008  0.2846 -0.2874
 7036WAT     H121627   7.195   5.584   2.151 -2.5341  2.0581 -0.9554
 7036WAT     H221628   7.080   5.491   2.116 -0.8897 -0.5970  0.4036
 7037WAT      O21629   2.574   0.247   3.011  0.3035  0.4107  0.4242
 7037WAT     H121630   2.537   0.248   3.099  2.6515  0.0641  1.4940
 7037WAT     H221631   2.669   0.254   3.024  0.6696  1.4841 -2.1353
 7038WAT      O21632   2.064   2.454   1.955 -0.3491  0.3489 -0.2263
 7038WAT     H121633   2.065   2.469   1.861  0.1539 -1.4002 -0.5332
 7038WAT     H221634   2.125   2.519   1.991  0.0452  0.5183 -1.1885
 7039WAT      O21635   2.360   3.992   5.958 -0.6088  0.2142  0.2564
 7039WAT     H121636   2.440   3.981   5.906 -1.0283  3.3912 -1.3124
 7039WAT     H221637   2.391   4.002   6.048  0.6327 -0.0667 -0.1169
 7040WAT      O21638   3.539   5.584   0.387 -0.0533  0.2198 -0.6372
 7040WAT     H121639   3.452   5.622   0.393 -1.0602 -1.8042 -1.5244
 7040WAT     H221640   3.537   5.508   0.446  1.5125  0.8066  0.2299
 7041WAT      O21641   1.486   2.334   5.179  0.0329  0.3791 -0.5899
 7041WAT     H121642   1.427   2.361   5.109  0.8803  2.3671 -0.5867
 7041WAT     H221643   1.549   2.276   5.136  0.9840  2.1521 -1.6725
 7042WAT      O21644   0.420   0.208   2.525 -0.0451 -0.6226 -0.1291
 7042WAT     H121645   0.377   0.206   2.610 -0.6977  4.7686 -0.0234
 7042WAT     H221646   0.350   0.224   2.462  0.7714 -1.4794 -1.3105
 7043WAT      O21647   1.189   3.665   2.680 -0.3792 -0.4889 -0.2784
 7043WAT     H121648   1.150   3.641   2.596 -2.8942  0.2233  0.5981
 7043WAT     H221649   1.263   3.722   2.656 -1.7538  0.6951 -2.0208
 7044WAT      O21650   2.292   0.670   2.247 -0.9310  0.8879  0.1960
 7044WAT     H121651   2.200   0.696   2.245 -1.1827  0.3626  2.3411
 7044WAT     H221652   2.316   0.673   2.340  1.0694  0.4547 -0.2507
 7045WAT      O21653   0.452   5.271   2.167  0.5176 -0.3385 -0.3574
 7045WAT     H121654   0.500   5.327   2.227  0.6832 -0.7395 -0.1144
 7045WAT     H221655   0.481   5.183   2.188 -1.3075 -0.7245  0.7168
 7046WAT      O21656   2.006   0.580   2.247  1.0503 -0.1022 -0.2197
 7046WAT     H121657   1.933   0.518   2.236 -0.9640  1.8027  1.4562
 7046WAT     H221658   2.056   0.545   2.321 -0.7125  0.6929  1.4522
 7047WAT      O21659   2.513   0.648   5.960 -0.1877  0.4050  0.1599
 7047WAT     H121660   2.433   0.614   5.999 -0.3951  0.8605  0.1461
 7047WAT     H221661   2.521   0.604   5.876  0.3434 -0.6977  0.7735
 7048WAT      O21662   2.613   5.538   5.874 -0.2172  0.1472 -0.0690
 7048WAT     H121663   2.612   5.581   5.789  0.0271 -2.5165 -1.5122
 7048WAT     H221664   2.699   5.497   5.880 -1.1027 -1.7586  0.3232
 7049WAT      O21665   3.016   2.271   0.464  0.0461  0.2912  0.3802
 7049WAT     H121666   3.058   2.192   0.430  0.9271  0.6740  0.5708
 7049WAT     H221667   3.084   2.316   0.514 -1.2688 -0.4603  3.0778
 7050WAT      O21668   1.459   5.166   1.619 -0.3888 -0.2297 -0.5720
 7050WAT     H121669   1.390   5.101   1.633  0.1019 -0.5223  0.6330
 7050WAT     H221670   1.537   5.127   1.658  0.2634  0.4784 -1.1198
 7051WAT      O21671   2.895   1.936   1.065  0.2984 -0.1564  0.3956
 7051WAT     H121672   2.919   1.994   0.993  0.1605  1.1034  1.3388
 7051WAT     H221673   2.949   1.858   1.052  0.5887  0.2194 -0.8138
 7052WAT      O21674   2.584   0.570   0.968  0.0888 -0.2156 -0.0259
 7052WAT     H121675   2.592   0.587   0.875 -0.7230  1.2694  0.1502
 7052WAT     H221676   2.538   0.646   1.003 -1.4562 -1.6717  1.2721
 7053WAT      O21677   6.070   1.102   3.508  0.0495 -0.4065 -0.1996
 7053WAT     H121678   6.029   1.176   3.464 -1.0051 -0.1521  1.1641
 7053WAT     H221679   6.084   1.131   3.598  0.4321 -1.5536  0.1343
 7054WAT      O21680   2.176   0.610   5.759  0.6875 -0.0307  0.0621
 7054WAT     H121681   2.105   0.641   5.703  0.7942  0.6459  0.2854
 7054WAT     H221682   2.132   0.566   5.831  0.4347  1.2025  0.6911
 7055WAT      O21683   1.497   0.834   0.657 -0.6663  0.3735 -0.2026
 7055WAT     H121684   1.505   0.796   0.569  0.6115 -2.1302  0.9171
 7055WAT     H221685   1.560   0.906   0.658 -0.1923 -0.0198 -1.1020
 7056WAT      O21686   1.804   1.411   1.067 -0.3168 -0.0953  0.6700
 7056WAT     H121687   1.863   1.444   1.000  1.2700  0.7877  2.4182
 7056WAT     H221688   1.725   1.464   1.057 -0.6250 -0.8294 -1.2526
 7057WAT      O21689   0.580   1.731   4.582  0.3956 -0.0610 -0.2453
 7057WAT     H121690   0.655   1.788   4.568  0.7646 -0.2833  0.7761
 7057WAT     H221691   0.533   1.769   4.656 -0.6300  0.1935 -0.9972
 7058WAT      O21692   0.658   4.407   1.646  0.3455  0.1675  0.0356
 7058WAT     H121693   0.702   4.330   1.682  1.1819  0.4284 -0.4085
 7058WAT     H221694   0.611   4.444   1.720  2.6675  1.1472  1.1067
 7059WAT      O21695   0.787   2.536   1.411 -0.0057  0.3412 -0.1743
 7059WAT     H121696   0.790   2.630   1.427  1.5287  0.4208 -0.7687
 7059WAT     H221697   0.757   2.498   1.493 -0.5096  1.3346  0.1086
 7060WAT      O21698   1.868   5.300   1.407 -0.0211  0.1131  0.1791
 7060WAT     H121699   1.879   5.359   1.482 -1.3649 -0.0584  0.5439
 7060WAT     H221700   1.950   5.307   1.359  0.9930  0.0100  1.8227
 7061WAT      O21701   1.423   6.001   2.563  0.1243  0.1078 -0.5512
 7061WAT     H121702   1.350   5.938   2.558  0.9081 -0.9879  0.8829
 7061WAT     H221703   1.390   6.069   2.621  0.4106 -0.6981  0.5994
 7062WAT      O21704   3.217   1.415   1.394 -0.1623 -0.1934 -0.1379
 7062WAT     H121705   3.256   1.358   1.461 -3.1262 -3.3058 -0.7663
 7062WAT     H221706   3.124   1.414   1.414 -0.6680  2.0455 -2.0633
 7063WAT      O21707   2.787   4.691   1.564 -0.0290  0.2664  0.2770
 7063WAT     H121708   2.854   4.670   1.629  1.8574 -0.8365 -1.8854
 7063WAT     H221709   2.716   4.629   1.580  0.8773 -0.7029  0.6273
 7064WAT      O21710   3.211   5.886   1.664  0.6172 -0.5706  0.6466
 7064WAT     H121711   3.189   5.840   1.583  0.1697 -0.8512  0.9247
 7064WAT     H221712   3.302   5.863   1.680  0.2333 -1.8642  1.1034
 7065WAT      O21713   6.462   0.160   2.606 -0.1489  0.3799  0.6131
 7065WAT     H121714   6.504   0.144   2.521 -0.3040 -1.3259  0.8183
 7065WAT     H221715   6.533   0.155   2.670  0.2790  3.3537  0.5297
 7066WAT      O21716   2.694   1.375   2.461  0.0502 -0.0986  0.2641
 7066WAT     H121717   2.708   1.323   2.382 -1.3226 -0.1075  0.0084
 7066WAT     H221718   2.780   1.413   2.480  0.6218 -0.8734 -0.6669
 7067WAT      O21719   2.589   3.176   4.930 -0.4780 -0.2861  0.2254
 7067WAT     H121720   2.665   3.218   4.970 -1.2456  0.7681  0.6295
 7067WAT     H221721   2.617   3.155   4.841  0.1301  0.5736  0.1980
 7068WAT      O21722   3.509   0.378   1.690  0.0380  0.6246  0.3366
 7068WAT     H121723   3.519   0.357   1.597 -0.7287 -3.0812  0.9251
 7068WAT     H221724   3.599   0.385   1.722  0.4818 -1.8372 -0.0966
 7069WAT      O21725   3.030   0.819   5.629  0.2974  0.6651  0.5127
 7069WAT     H121726   3.015   0.813   5.535 -3.0776  1.4675  0.8564
 7069WAT     H221727   3.026   0.728   5.660 -2.0116  0.6144  0.2050
 7070WAT      O21728   2.207   0.893   5.855 -0.2457  0.2911  0.4682
 7070WAT     H121729   2.241   0.942   5.780 -0.4780 -0.4334 -0.1214
 7070WAT     H221730   2.178   0.810   5.818 -1.3635  0.3440  1.1927
 7071WAT      O21731   1.922   2.865   0.932  0.1582  0.9380 -0.0230
 7071WAT     H121732   2.013   2.856   0.962  1.3843  1.9243 -3.0074
 7071WAT     H221733   1.920   2.952   0.890 -1.5878  0.1282 -1.7500
 7072WAT      O21734   1.956   0.802   0.480 -0.1668 -0.4354  0.1976
 7072WAT     H121735   1.918   0.768   0.400  0.5415 -1.1533  0.1546
 7072WAT     H221736   2.051   0.795   0.466  0.0200  1.2321  0.3185
 7073WAT      O21737   2.907   4.985   0.902 -0.1275 -0.2128  0.2709
 7073WAT     H121738   2.905   5.070   0.946 -0.4117 -0.1520  0.1424
 7073WAT     H221739   2.938   5.005   0.814 -0.3180 -0.2267  0.2020
 7074WAT      O21740   0.654   0.657   3.978  0.5520 -0.2649 -0.2093
 7074WAT     H121741   0.720   0.644   3.911  1.2138 -0.9232  0.5571
 7074WAT     H221742   0.696   0.713   4.043 -0.6668  1.8599 -1.1500
   7.41407   6.13948   6.01488
