GROningen MAchine for Chemical Simulation
25256
    1PYR      C    1   3.231   3.455   3.162
    1PYR     C1    2   3.299   3.576   3.163
    1PYR     C2    3   3.439   3.580   3.162
    1PYR     C3    4   3.510   3.701   3.162
    1PYR     C4    5   3.649   3.702   3.161
    1PYR     C5    6   3.722   3.583   3.162
    1PYR     C6    7   3.863   3.582   3.162
    1PYR     C7    8   3.933   3.462   3.162
    1PYR     C8    9   3.865   3.341   3.162
    1PYR     C9   10   3.725   3.338   3.161
    1PYR    C10   11   3.654   3.216   3.161
    1PYR    C11   12   3.515   3.215   3.161
    1PYR    C12   13   3.442   3.335   3.162
    1PYR    C13   14   3.301   3.335   3.162
    1PYR    C14   15   3.511   3.458   3.162
    1PYR    C15   16   3.653   3.459   3.162
    1PYR      H   17   3.122   3.454   3.163
    1PYR     H1   18   3.242   3.669   3.163
    1PYR     H2   19   3.456   3.796   3.161
    1PYR     H3   20   3.701   3.798   3.161
    1PYR     H4   21   3.918   3.676   3.162
    1PYR     H5   22   4.042   3.463   3.162
    1PYR     H6   23   3.922   3.248   3.162
    1PYR     H7   24   3.708   3.122   3.161
    1PYR     H8   25   3.463   3.119   3.161
    1PYR     H9   26   3.246   3.241   3.162
    2WAT      O   27   6.671   6.195   5.817
    2WAT     H1   28   6.663   6.104   5.790
    2WAT     H2   29   6.630   6.245   5.747
    3WAT      O   30   6.484   6.373   6.005
    3WAT     H1   31   6.407   6.325   6.034
    3WAT     H2   32   6.549   6.305   5.988
    4WAT      O   33   5.727   5.900   5.472
    4WAT     H1   34   5.638   5.934   5.461
    4WAT     H2   35   5.755   5.880   5.382
    5WAT      O   36   5.523   6.160   6.060
    5WAT     H1   37   5.580   6.083   6.060
    5WAT     H2   38   5.523   6.190   5.969
    6WAT      O   39   6.428   6.640   6.006
    6WAT     H1   40   6.421   6.546   5.990
    6WAT     H2   41   6.504   6.649   6.063
    7WAT      O   42   6.531   5.921   6.029
    7WAT     H1   43   6.569   5.834   6.018
    7WAT     H2   44   6.521   5.955   5.940
    8WAT      O   45   5.944   5.758   5.575
    8WAT     H1   46   5.955   5.848   5.606
    8WAT     H2   47   5.853   5.754   5.546
    9WAT      O   48   6.128   6.055   6.008
    9WAT     H1   49   6.179   6.105   6.072
    9WAT     H2   50   6.182   5.978   5.991
   10WAT      O   51   6.595   6.530   5.585
   10WAT     H1   52   6.534   6.577   5.528
   10WAT     H2   53   6.647   6.600   5.626
   11WAT      O   54   6.933   5.865   5.999
   11WAT     H1   55   6.863   5.893   6.057
   11WAT     H2   56   6.969   5.946   5.963
   12WAT      O   57   5.532   6.599   5.322
   12WAT     H1   58   5.495   6.648   5.249
   12WAT     H2   59   5.558   6.666   5.385
   13WAT      O   60   6.293   5.439   5.868
   13WAT     H1   61   6.324   5.384   5.796
   13WAT     H2   62   6.200   5.453   5.850
   14WAT      O   63   6.978   6.683   5.606
   14WAT     H1   64   6.967   6.589   5.618
   14WAT     H2   65   6.977   6.719   5.695
   15WAT      O   66   6.532   6.246   5.542
   15WAT     H1   67   6.439   6.239   5.565
   15WAT     H2   68   6.547   6.339   5.530
   16WAT      O   69   6.531   5.873   5.241
   16WAT     H1   70   6.437   5.889   5.250
   16WAT     H2   71   6.563   5.945   5.187
   17WAT      O   72   6.935   6.402   5.592
   17WAT     H1   73   6.873   6.368   5.527
   17WAT     H2   74   6.933   6.337   5.663
   18WAT      O   75   6.093   6.298   5.820
   18WAT     H1   76   6.052   6.227   5.770
   18WAT     H2   77   6.101   6.264   5.909
   19WAT      O   78   6.139   6.667   6.036
   19WAT     H1   79   6.110   6.606   5.968
   19WAT     H2   80   6.234   6.671   6.025
   20WAT      O   81   6.753   6.326   5.293
   20WAT     H1   82   6.797   6.242   5.278
   20WAT     H2   83   6.824   6.389   5.301
   21WAT      O   84   5.763   6.188   5.570
   21WAT     H1   85   5.751   6.260   5.509
   21WAT     H2   86   5.732   6.111   5.522
   22WAT      O   87   5.651   6.675   5.792
   22WAT     H1   88   5.610   6.689   5.706
   22WAT     H2   89   5.740   6.646   5.771
   23WAT      O   90   6.009   5.522   5.908
   23WAT     H1   91   5.965   5.600   5.875
   23WAT     H2   92   6.065   5.554   5.979
   24WAT      O   93   6.321   5.484   5.396
   24WAT     H1   94   6.258   5.484   5.469
   24WAT     H2   95   6.312   5.397   5.357
   25WAT      O   96   6.213   5.577   6.094
   25WAT     H1   97   6.243   5.667   6.086
   25WAT     H2   98   6.268   5.528   6.033
   26WAT      O   99   5.988   6.034   5.681
   26WAT     H1  100   5.966   6.013   5.771
   26WAT     H2  101   5.910   6.078   5.646
   27WAT      O  102   6.711   6.035   5.541
   27WAT     H1  103   6.651   6.107   5.522
   27WAT     H2  104   6.766   6.029   5.463
   28WAT      O  105   6.572   5.899   5.744
   28WAT     H1  106   6.611   5.930   5.663
   28WAT     H2  107   6.608   5.811   5.755
   29WAT      O  108   5.476   5.558   5.966
   29WAT     H1  109   5.447   5.615   6.037
   29WAT     H2  110   5.550   5.510   6.002
   30WAT      O  111   5.494   5.952   5.087
   30WAT     H1  112   5.486   6.046   5.101
   30WAT     H2  113   5.459   5.938   4.999
   31WAT      O  114   6.274   5.825   5.994
   31WAT     H1  115   6.275   5.781   5.909
   31WAT     H2  116   6.364   5.857   6.005
   32WAT      O  117   5.859   5.814   5.890
   32WAT     H1  118   5.825   5.861   5.966
   32WAT     H2  119   5.783   5.768   5.854
   33WAT      O  120   6.281   5.925   5.293
   33WAT     H1  121   6.293   5.921   5.388
   33WAT     H2  122   6.242   6.012   5.277
   34WAT      O  123   6.182   6.156   5.233
   34WAT     H1  124   6.125   6.112   5.170
   34WAT     H2  125   6.253   6.192   5.179
   35WAT      O  126   5.591   5.706   5.782
   35WAT     H1  127   5.562   5.669   5.865
   35WAT     H2  128   5.585   5.633   5.720
   36WAT      O  129   5.936   6.556   5.460
   36WAT     H1  130   5.859   6.502   5.444
   36WAT     H2  131   6.009   6.504   5.426
   37WAT      O  132   6.558   5.595   5.454
   37WAT     H1  133   6.477   5.545   5.446
   37WAT     H2  134   6.539   5.679   5.412
   38WAT      O  135   6.830   6.032   5.283
   38WAT     H1  136   6.919   6.063   5.266
   38WAT     H2  137   6.827   5.945   5.244
   39WAT      O  138   5.941   6.523   5.824
   39WAT     H1  139   5.992   6.442   5.818
   39WAT     H2  140   5.895   6.517   5.908
   40WAT      O  141   6.429   6.649   5.351
   40WAT     H1  142   6.463   6.724   5.302
   40WAT     H2  143   6.346   6.681   5.387
   41WAT      O  144   6.718   6.582   5.888
   41WAT     H1  145   6.753   6.522   5.822
   41WAT     H2  146   6.629   6.549   5.905
   42WAT      O  147   6.326   6.658   5.628
   42WAT     H1  148   6.395   6.712   5.666
   42WAT     H2  149   6.248   6.712   5.632
   43WAT      O  150   5.540   6.219   5.177
   43WAT     H1  151   5.627   6.248   5.206
   43WAT     H2  152   5.491   6.301   5.166
   44WAT      O  153   6.256   6.358   5.590
   44WAT     H1  154   6.302   6.439   5.612
   44WAT     H2  155   6.221   6.326   5.673
   45WAT      O  156   5.847   5.392   5.637
   45WAT     H1  157   5.834   5.392   5.732
   45WAT     H2  158   5.764   5.426   5.602
   46WAT      O  159   5.739   6.401   5.390
   46WAT     H1  160   5.678   6.475   5.391
   46WAT     H2  161   5.786   6.410   5.308
   47WAT      O  162   6.229   5.941   5.580
   47WAT     H1  163   6.159   5.988   5.624
   47WAT     H2  164   6.258   5.875   5.644
   48WAT      O  165   6.633   5.613   5.724
   48WAT     H1  166   6.620   5.615   5.629
   48WAT     H2  167   6.727   5.618   5.736
   49WAT      O  168   6.050   5.772   5.318
   49WAT     H1  169   6.135   5.816   5.311
   49WAT     H2  170   6.013   5.803   5.401
   50WAT      O  171   6.942   6.229   5.809
   50WAT     H1  172   6.848   6.230   5.827
   50WAT     H2  173   6.973   6.150   5.854
   51WAT      O  174   5.940   6.397   5.165
   51WAT     H1  175   6.016   6.386   5.221
   51WAT     H2  176   5.947   6.328   5.100
   52WAT      O  177   5.809   6.140   5.234
   52WAT     H1  178   5.817   6.046   5.245
   52WAT     H2  179   5.898   6.173   5.244
   53WAT      O  180   6.252   6.595   5.113
   53WAT     H1  181   6.242   6.533   5.185
   53WAT     H2  182   6.235   6.542   5.034
   54WAT      O  183   6.576   6.501   5.173
   54WAT     H1  184   6.521   6.546   5.237
   54WAT     H2  185   6.638   6.450   5.225
   55WAT      O  186   6.143   6.397   5.363
   55WAT     H1  187   6.185   6.380   5.447
   55WAT     H2  188   6.155   6.316   5.313
   56WAT      O  189   6.394   6.299   5.087
   56WAT     H1  190   6.446   6.228   5.051
   56WAT     H2  191   6.459   6.363   5.117
   57WAT      O  192   6.032   6.004   5.057
   57WAT     H1  193   6.012   5.918   5.093
   57WAT     H2  194   6.015   5.995   4.963
   58WAT      O  195   6.780   5.485   5.310
   58WAT     H1  196   6.808   5.401   5.346
   58WAT     H2  197   6.703   5.508   5.361
   59WAT      O  198   5.912   5.714   5.056
   59WAT     H1  199   5.943   5.715   4.965
   59WAT     H2  200   5.986   5.679   5.106
   60WAT      O  201   6.234   5.608   5.155
   60WAT     H1  202   6.199   5.541   5.097
   60WAT     H2  203   6.254   5.562   5.236
   61WAT      O  204   5.815   6.645   5.139
   61WAT     H1  205   5.858   6.699   5.205
   61WAT     H2  206   5.863   6.562   5.140
   62WAT      O  207   5.568   6.261   5.794
   62WAT     H1  208   5.503   6.234   5.730
   62WAT     H2  209   5.652   6.250   5.749
   63WAT      O  210   6.863   5.741   5.216
   63WAT     H1  211   6.905   5.722   5.132
   63WAT     H2  212   6.832   5.656   5.247
   64WAT      O  213   5.490   5.982   5.388
   64WAT     H1  214   5.399   6.009   5.371
   64WAT     H2  215   5.538   6.009   5.310
   65WAT      O  216   5.744   5.888   5.179
   65WAT     H1  217   5.815   5.846   5.131
   65WAT     H2  218   5.672   5.895   5.116
   66WAT      O  219   5.709   5.493   5.083
   66WAT     H1  220   5.781   5.547   5.115
   66WAT     H2  221   5.736   5.466   4.996
   67WAT      O  222   5.651   5.497   5.443
   67WAT     H1  223   5.727   5.509   5.385
   67WAT     H2  224   5.605   5.581   5.438
   68WAT      O  225   6.305   5.709   5.742
   68WAT     H1  226   6.224   5.671   5.708
   68WAT     H2  227   6.356   5.633   5.772
   69WAT      O  228   6.755   5.375   5.866
   69WAT     H1  229   6.816   5.432   5.913
   69WAT     H2  230   6.681   5.432   5.843
   70WAT      O  231   5.888   5.550   5.297
   70WAT     H1  232   5.941   5.471   5.284
   70WAT     H2  233   5.952   5.618   5.320
   71WAT      O  234   6.108   5.524   5.602
   71WAT     H1  235   6.045   5.454   5.619
   71WAT     H2  236   6.054   5.600   5.581
   72WAT      O  237   6.671   6.195   3.940
   72WAT     H1  238   6.663   6.104   3.913
   72WAT     H2  239   6.630   6.245   3.869
   73WAT      O  240   6.484   6.373   4.128
   73WAT     H1  241   6.407   6.325   4.157
   73WAT     H2  242   6.549   6.305   4.111
   74WAT      O  243   5.886   6.404   4.216
   74WAT     H1  244   5.803   6.378   4.256
   74WAT     H2  245   5.947   6.411   4.289
   75WAT      O  246   5.727   5.900   3.594
   75WAT     H1  247   5.638   5.934   3.584
   75WAT     H2  248   5.755   5.880   3.505
   76WAT      O  249   5.523   6.160   4.183
   76WAT     H1  250   5.580   6.083   4.183
   76WAT     H2  251   5.523   6.190   4.092
   77WAT      O  252   6.428   6.640   4.129
   77WAT     H1  253   6.421   6.546   4.113
   77WAT     H2  254   6.504   6.649   4.186
   78WAT      O  255   5.647   5.701   4.361
   78WAT     H1  256   5.629   5.611   4.389
   78WAT     H2  257   5.607   5.756   4.429
   79WAT      O  258   6.531   5.921   4.151
   79WAT     H1  259   6.569   5.834   4.140
   79WAT     H2  260   6.521   5.955   4.062
   80WAT      O  261   5.944   5.758   3.698
   80WAT     H1  262   5.955   5.848   3.728
   80WAT     H2  263   5.853   5.754   3.669
   81WAT      O  264   5.709   5.951   4.222
   81WAT     H1  265   5.777   5.977   4.284
   81WAT     H2  266   5.678   5.867   4.255
   82WAT      O  267   6.128   6.055   4.131
   82WAT     H1  268   6.179   6.105   4.195
   82WAT     H2  269   6.182   5.978   4.113
   83WAT      O  270   5.957   5.519   4.557
   83WAT     H1  271   5.957   5.571   4.477
   83WAT     H2  272   5.874   5.471   4.555
   84WAT      O  273   6.595   6.530   3.707
   84WAT     H1  274   6.534   6.577   3.651
   84WAT     H2  275   6.647   6.600   3.749
   85WAT      O  276   6.082   6.483   4.375
   85WAT     H1  277   6.048   6.546   4.439
   85WAT     H2  278   6.099   6.536   4.297
   86WAT      O  279   6.933   5.865   4.122
   86WAT     H1  280   6.863   5.893   4.180
   86WAT     H2  281   6.969   5.946   4.086
   87WAT      O  282   5.925   5.690   4.358
   87WAT     H1  283   5.959   5.775   4.329
   87WAT     H2  284   5.831   5.705   4.370
   88WAT      O  285   5.532   6.599   3.445
   88WAT     H1  286   5.495   6.648   3.372
   88WAT     H2  287   5.558   6.666   3.508
   89WAT      O  288   6.293   5.439   3.991
   89WAT     H1  289   6.324   5.384   3.919
   89WAT     H2  290   6.200   5.453   3.972
   90WAT      O  291   6.978   6.683   3.729
   90WAT     H1  292   6.967   6.589   3.741
   90WAT     H2  293   6.977   6.719   3.817
   91WAT      O  294   6.788   6.501   4.352
   91WAT     H1  295   6.830   6.480   4.269
   91WAT     H2  296   6.861   6.527   4.410
   92WAT      O  297   6.532   6.246   3.664
   92WAT     H1  298   6.439   6.239   3.687
   92WAT     H2  299   6.547   6.339   3.653
   93WAT      O  300   6.531   5.873   3.364
   93WAT     H1  301   6.437   5.889   3.372
   93WAT     H2  302   6.563   5.945   3.309
   94WAT      O  303   6.935   6.402   3.715
   94WAT     H1  304   6.873   6.368   3.650
   94WAT     H2  305   6.933   6.337   3.785
   95WAT      O  306   6.879   6.020   4.456
   95WAT     H1  307   6.838   6.102   4.482
   95WAT     H2  308   6.806   5.961   4.437
   96WAT      O  309   6.093   6.298   3.942
   96WAT     H1  310   6.052   6.227   3.893
   96WAT     H2  311   6.101   6.264   4.031
   97WAT      O  312   6.139   6.667   4.159
   97WAT     H1  313   6.110   6.606   4.091
   97WAT     H2  314   6.234   6.671   4.148
   98WAT      O  315   5.964   5.976   4.320
   98WAT     H1  316   6.019   5.987   4.243
   98WAT     H2  317   6.015   6.013   4.392
   99WAT      O  318   6.049   6.641   4.824
   99WAT     H1  319   5.959   6.663   4.849
   99WAT     H2  320   6.051   6.653   4.729
  100WAT      O  321   6.753   6.326   3.415
  100WAT     H1  322   6.797   6.242   3.401
  100WAT     H2  323   6.824   6.389   3.424
  101WAT      O  324   5.931   6.328   4.681
  101WAT     H1  325   5.917   6.415   4.718
  101WAT     H2  326   5.843   6.294   4.667
  102WAT      O  327   5.763   6.188   3.692
  102WAT     H1  328   5.751   6.260   3.631
  102WAT     H2  329   5.732   6.111   3.645
  103WAT      O  330   5.526   6.505   4.273
  103WAT     H1  331   5.534   6.518   4.179
  103WAT     H2  332   5.588   6.434   4.292
  104WAT      O  333   5.651   6.675   3.914
  104WAT     H1  334   5.610   6.689   3.829
  104WAT     H2  335   5.740   6.646   3.894
  105WAT      O  336   5.532   6.609   4.527
  105WAT     H1  337   5.548   6.562   4.445
  105WAT     H2  338   5.579   6.558   4.594
  106WAT      O  339   6.009   5.522   4.031
  106WAT     H1  340   5.965   5.600   3.998
  106WAT     H2  341   6.065   5.554   4.101
  107WAT      O  342   6.438   5.809   4.591
  107WAT     H1  343   6.392   5.830   4.672
  107WAT     H2  344   6.398   5.727   4.561
  108WAT      O  345   6.938   5.931   4.704
  108WAT     H1  346   6.853   5.901   4.736
  108WAT     H2  347   6.922   5.955   4.613
  109WAT      O  348   6.648   6.081   4.914
  109WAT     H1  349   6.680   5.997   4.880
  109WAT     H2  350   6.726   6.133   4.929
  110WAT      O  351   6.321   5.484   3.519
  110WAT     H1  352   6.258   5.484   3.591
  110WAT     H2  353   6.312   5.397   3.479
  111WAT      O  354   6.213   5.577   4.217
  111WAT     H1  355   6.243   5.667   4.209
  111WAT     H2  356   6.268   5.528   4.155
  112WAT      O  357   5.988   6.034   3.804
  112WAT     H1  358   5.966   6.013   3.894
  112WAT     H2  359   5.910   6.078   3.769
  113WAT      O  360   6.711   6.035   3.663
  113WAT     H1  361   6.651   6.107   3.645
  113WAT     H2  362   6.766   6.029   3.585
  114WAT      O  363   6.232   6.124   4.870
  114WAT     H1  364   6.223   6.030   4.855
  114WAT     H2  365   6.317   6.146   4.831
  115WAT      O  366   6.572   5.899   3.866
  115WAT     H1  367   6.611   5.930   3.785
  115WAT     H2  368   6.608   5.811   3.878
  116WAT      O  369   5.746   5.765   4.685
  116WAT     H1  370   5.706   5.850   4.706
  116WAT     H2  371   5.677   5.702   4.705
  117WAT      O  372   6.403   5.774   4.992
  117WAT     H1  373   6.334   5.754   5.056
  117WAT     H2  374   6.477   5.802   5.046
  118WAT      O  375   5.476   5.558   4.089
  118WAT     H1  376   5.447   5.615   4.160
  118WAT     H2  377   5.550   5.510   4.125
  119WAT      O  378   5.494   5.952   3.210
  119WAT     H1  379   5.486   6.046   3.224
  119WAT     H2  380   5.459   5.938   3.122
  120WAT      O  381   6.631   6.158   4.276
  120WAT     H1  382   6.557   6.209   4.311
  120WAT     H2  383   6.591   6.076   4.246
  121WAT      O  384   6.274   5.825   4.116
  121WAT     H1  385   6.275   5.781   4.032
  121WAT     H2  386   6.364   5.857   4.127
  122WAT      O  387   5.859   5.814   4.012
  122WAT     H1  388   5.825   5.861   4.088
  122WAT     H2  389   5.783   5.768   3.976
  123WAT      O  390   6.281   5.925   3.416
  123WAT     H1  391   6.293   5.921   3.510
  123WAT     H2  392   6.242   6.012   3.400
  124WAT      O  393   6.677   5.703   4.217
  124WAT     H1  394   6.679   5.748   4.302
  124WAT     H2  395   6.652   5.613   4.239
  125WAT      O  396   6.182   6.156   3.355
  125WAT     H1  397   6.125   6.112   3.293
  125WAT     H2  398   6.253   6.192   3.302
  126WAT      O  399   5.689   6.546   4.743
  126WAT     H1  400   5.651   6.482   4.803
  126WAT     H2  401   5.721   6.617   4.800
  127WAT      O  402   6.304   6.231   4.291
  127WAT     H1  403   6.341   6.184   4.366
  127WAT     H2  404   6.285   6.319   4.325
  128WAT      O  405   5.591   5.706   3.904
  128WAT     H1  406   5.562   5.669   3.988
  128WAT     H2  407   5.585   5.633   3.843
  129WAT      O  408   6.083   6.135   4.523
  129WAT     H1  409   6.053   6.223   4.545
  129WAT     H2  410   6.179   6.141   4.527
  130WAT      O  411   5.936   6.556   3.583
  130WAT     H1  412   5.859   6.502   3.567
  130WAT     H2  413   6.009   6.504   3.549
  131WAT      O  414   6.558   5.595   3.576
  131WAT     H1  415   6.477   5.545   3.569
  131WAT     H2  416   6.539   5.679   3.535
  132WAT      O  417   6.550   6.463   4.751
  132WAT     H1  418   6.544   6.371   4.725
  132WAT     H2  419   6.487   6.472   4.822
  133WAT      O  420   6.830   6.032   3.406
  133WAT     H1  421   6.919   6.063   3.388
  133WAT     H2  422   6.827   5.945   3.367
  134WAT      O  423   5.941   6.523   3.946
  134WAT     H1  424   5.992   6.442   3.941
  134WAT     H2  425   5.895   6.517   4.031
  135WAT      O  426   6.429   6.649   3.474
  135WAT     H1  427   6.463   6.724   3.424
  135WAT     H2  428   6.346   6.681   3.510
  136WAT      O  429   5.689   6.219   4.638
  136WAT     H1  430   5.653   6.286   4.696
  136WAT     H2  431   5.660   6.136   4.675
  137WAT      O  432   6.009   6.265   4.926
  137WAT     H1  433   5.979   6.280   4.836
  137WAT     H2  434   6.086   6.209   4.917
  138WAT      O  435   6.718   6.582   4.010
  138WAT     H1  436   6.753   6.522   3.944
  138WAT     H2  437   6.629   6.549   4.027
  139WAT      O  438   6.326   6.658   3.751
  139WAT     H1  439   6.395   6.712   3.789
  139WAT     H2  440   6.248   6.712   3.754
  140WAT      O  441   5.540   6.219   3.300
  140WAT     H1  442   5.627   6.248   3.328
  140WAT     H2  443   5.491   6.301   3.289
  141WAT      O  444   6.256   6.358   3.712
  141WAT     H1  445   6.302   6.439   3.735
  141WAT     H2  446   6.221   6.326   3.795
  142WAT      O  447   5.847   5.392   3.759
  142WAT     H1  448   5.834   5.392   3.854
  142WAT     H2  449   5.764   5.426   3.724
  143WAT      O  450   5.547   5.568   4.705
  143WAT     H1  451   5.475   5.588   4.766
  143WAT     H2  452   5.589   5.491   4.743
  144WAT      O  453   5.739   6.401   3.513
  144WAT     H1  454   5.678   6.475   3.514
  144WAT     H2  455   5.786   6.410   3.430
  145WAT      O  456   6.696   5.818   4.480
  145WAT     H1  457   6.733   5.735   4.513
  145WAT     H2  458   6.610   5.824   4.522
  146WAT      O  459   6.229   5.941   3.703
  146WAT     H1  460   6.159   5.988   3.747
  146WAT     H2  461   6.258   5.875   3.766
  147WAT      O  462   6.392   6.083   4.503
  147WAT     H1  463   6.442   6.130   4.569
  147WAT     H2  464   6.406   5.991   4.524
  148WAT      O  465   6.633   5.613   3.847
  148WAT     H1  466   6.620   5.615   3.752
  148WAT     H2  467   6.727   5.618   3.859
  149WAT      O  468   6.050   5.772   3.440
  149WAT     H1  469   6.135   5.816   3.434
  149WAT     H2  470   6.013   5.803   3.523
  150WAT      O  471   6.942   6.229   3.932
  150WAT     H1  472   6.848   6.230   3.949
  150WAT     H2  473   6.973   6.150   3.976
  151WAT      O  474   5.940   6.397   3.288
  151WAT     H1  475   6.016   6.386   3.344
  151WAT     H2  476   5.947   6.328   3.223
  152WAT      O  477   5.809   6.140   3.356
  152WAT     H1  478   5.817   6.046   3.367
  152WAT     H2  479   5.898   6.173   3.367
  153WAT      O  480   6.674   6.685   4.980
  153WAT     H1  481   6.613   6.687   4.906
  153WAT     H2  482   6.643   6.611   5.034
  154WAT      O  483   5.562   6.323   4.880
  154WAT     H1  484   5.612   6.265   4.937
  154WAT     H2  485   5.488   6.351   4.933
  155WAT      O  486   6.252   6.595   3.235
  155WAT     H1  487   6.242   6.533   3.308
  155WAT     H2  488   6.235   6.542   3.157
  156WAT      O  489   6.267   6.463   4.833
  156WAT     H1  490   6.191   6.520   4.825
  156WAT     H2  491   6.285   6.434   4.744
  157WAT      O  492   6.576   6.501   3.296
  157WAT     H1  493   6.521   6.546   3.360
  157WAT     H2  494   6.638   6.450   3.348
  158WAT      O  495   5.765   6.137   4.969
  158WAT     H1  496   5.769   6.107   5.060
  158WAT     H2  497   5.851   6.177   4.953
  159WAT      O  498   6.143   6.397   3.485
  159WAT     H1  499   6.185   6.380   3.569
  159WAT     H2  500   6.155   6.316   3.436
  160WAT      O  501   5.959   5.995   4.766
  160WAT     H1  502   5.906   5.946   4.703
  160WAT     H2  503   6.026   6.038   4.712
  161WAT      O  504   6.394   6.299   3.210
  161WAT     H1  505   6.446   6.228   3.173
  161WAT     H2  506   6.459   6.363   3.240
  162WAT      O  507   6.849   6.441   4.742
  162WAT     H1  508   6.890   6.457   4.827
  162WAT     H2  509   6.755   6.454   4.759
  163WAT      O  510   6.896   6.175   4.943
  163WAT     H1  511   6.954   6.100   4.934
  163WAT     H2  512   6.914   6.228   4.865
  164WAT      O  513   6.008   5.691   4.774
  164WAT     H1  514   5.998   5.630   4.701
  164WAT     H2  515   5.950   5.764   4.751
  165WAT      O  516   6.284   5.547   4.477
  165WAT     H1  517   6.240   5.549   4.393
  165WAT     H2  518   6.221   5.507   4.537
  166WAT      O  519   6.325   6.437   4.539
  166WAT     H1  520   6.367   6.521   4.522
  166WAT     H2  521   6.233   6.450   4.516
  167WAT      O  522   6.559   6.210   4.678
  167WAT     H1  523   6.571   6.150   4.752
  167WAT     H2  524   6.645   6.214   4.636
  168WAT      O  525   6.793   6.265   4.535
  168WAT     H1  526   6.740   6.318   4.475
  168WAT     H2  527   6.827   6.328   4.598
  169WAT      O  528   6.032   6.004   3.180
  169WAT     H1  529   6.012   5.918   3.216
  169WAT     H2  530   6.015   5.995   3.086
  170WAT      O  531   6.235   5.864   4.803
  170WAT     H1  532   6.294   5.833   4.872
  170WAT     H2  533   6.154   5.817   4.819
  171WAT      O  534   6.717   5.826   4.827
  171WAT     H1  535   6.648   5.760   4.820
  171WAT     H2  536   6.789   5.781   4.871
  172WAT      O  537   6.780   5.485   3.433
  172WAT     H1  538   6.808   5.401   3.468
  172WAT     H2  539   6.703   5.508   3.484
  173WAT      O  540   5.912   5.714   3.179
  173WAT     H1  541   5.943   5.715   3.088
  173WAT     H2  542   5.986   5.679   3.228
  174WAT      O  543   6.234   5.608   3.277
  174WAT     H1  544   6.199   5.541   3.219
  174WAT     H2  545   6.254   5.562   3.359
  175WAT      O  546   5.815   6.645   3.262
  175WAT     H1  547   5.858   6.699   3.327
  175WAT     H2  548   5.863   6.562   3.263
  176WAT      O  549   5.568   6.261   3.917
  176WAT     H1  550   5.503   6.234   3.852
  176WAT     H2  551   5.652   6.250   3.872
  177WAT      O  552   6.863   5.741   3.339
  177WAT     H1  553   6.905   5.722   3.255
  177WAT     H2  554   6.832   5.656   3.370
  178WAT      O  555   5.672   6.300   4.371
  178WAT     H1  556   5.709   6.291   4.459
  178WAT     H2  557   5.615   6.224   4.361
  179WAT      O  558   5.627   5.991   4.761
  179WAT     H1  559   5.538   5.988   4.795
  179WAT     H2  560   5.681   6.011   4.838
  180WAT      O  561   5.490   5.982   3.511
  180WAT     H1  562   5.399   6.009   3.494
  180WAT     H2  563   5.538   6.009   3.433
  181WAT      O  564   5.744   5.888   3.302
  181WAT     H1  565   5.815   5.846   3.253
  181WAT     H2  566   5.672   5.895   3.239
  182WAT      O  567   5.709   5.493   3.206
  182WAT     H1  568   5.781   5.547   3.238
  182WAT     H2  569   5.736   5.466   3.118
  183WAT      O  570   5.677   5.418   4.196
  183WAT     H1  571   5.742   5.363   4.152
  183WAT     H2  572   5.720   5.444   4.278
  184WAT      O  573   5.653   5.434   4.470
  184WAT     H1  574   5.618   5.480   4.547
  184WAT     H2  575   5.620   5.345   4.479
  185WAT      O  576   6.404   5.553   4.823
  185WAT     H1  577   6.398   5.612   4.898
  185WAT     H2  578   6.498   5.542   4.808
  186WAT      O  579   6.668   5.519   4.787
  186WAT     H1  580   6.729   5.551   4.720
  186WAT     H2  581   6.722   5.470   4.849
  187WAT      O  582   5.720   5.387   4.798
  187WAT     H1  583   5.775   5.369   4.722
  187WAT     H2  584   5.727   5.308   4.852
  188WAT      O  585   6.742   5.375   4.419
  188WAT     H1  586   6.654   5.408   4.399
  188WAT     H2  587   6.731   5.328   4.502
  189WAT      O  588   6.833   5.596   4.558
  189WAT     H1  589   6.800   5.514   4.520
  189WAT     H2  590   6.927   5.592   4.545
  190WAT      O  591   6.517   5.467   4.313
  190WAT     H1  592   6.438   5.514   4.341
  190WAT     H2  593   6.487   5.376   4.302
  191WAT      O  594   5.651   5.497   3.565
  191WAT     H1  595   5.727   5.509   3.508
  191WAT     H2  596   5.605   5.581   3.561
  192WAT      O  597   6.305   5.709   3.864
  192WAT     H1  598   6.224   5.671   3.830
  192WAT     H2  599   6.356   5.633   3.895
  193WAT      O  600   6.755   5.375   3.988
  193WAT     H1  601   6.816   5.432   4.036
  193WAT     H2  602   6.681   5.432   3.966
  194WAT      O  603   5.888   5.550   3.419
  194WAT     H1  604   5.941   5.471   3.406
  194WAT     H2  605   5.952   5.618   3.443
  195WAT      O  606   6.108   5.524   3.725
  195WAT     H1  607   6.045   5.454   3.741
  195WAT     H2  608   6.054   5.600   3.703
  196WAT      O  609   6.120   5.452   4.968
  196WAT     H1  610   6.092   5.502   4.892
  196WAT     H2  611   6.158   5.372   4.932
  197WAT      O  612   6.780   5.393   5.026
  197WAT     H1  613   6.769   5.425   5.116
  197WAT     H2  614   6.862   5.433   4.996
  198WAT      O  615   6.671   6.195   2.062
  198WAT     H1  616   6.663   6.104   2.035
  198WAT     H2  617   6.630   6.245   1.992
  199WAT      O  618   6.484   6.373   2.251
  199WAT     H1  619   6.407   6.325   2.280
  199WAT     H2  620   6.549   6.305   2.233
  200WAT      O  621   5.886   6.404   2.338
  200WAT     H1  622   5.803   6.378   2.378
  200WAT     H2  623   5.947   6.411   2.412
  201WAT      O  624   5.727   5.900   1.717
  201WAT     H1  625   5.638   5.934   1.707
  201WAT     H2  626   5.755   5.880   1.628
  202WAT      O  627   5.523   6.160   2.305
  202WAT     H1  628   5.580   6.083   2.305
  202WAT     H2  629   5.523   6.190   2.214
  203WAT      O  630   6.428   6.640   2.251
  203WAT     H1  631   6.421   6.546   2.235
  203WAT     H2  632   6.504   6.649   2.308
  204WAT      O  633   5.647   5.701   2.484
  204WAT     H1  634   5.629   5.611   2.512
  204WAT     H2  635   5.607   5.756   2.551
  205WAT      O  636   6.531   5.921   2.274
  205WAT     H1  637   6.569   5.834   2.263
  205WAT     H2  638   6.521   5.955   2.185
  206WAT      O  639   5.944   5.758   1.820
  206WAT     H1  640   5.955   5.848   1.851
  206WAT     H2  641   5.853   5.754   1.791
  207WAT      O  642   5.709   5.951   2.345
  207WAT     H1  643   5.777   5.977   2.407
  207WAT     H2  644   5.678   5.867   2.378
  208WAT      O  645   6.128   6.055   2.253
  208WAT     H1  646   6.179   6.105   2.317
  208WAT     H2  647   6.182   5.978   2.236
  209WAT      O  648   5.957   5.519   2.680
  209WAT     H1  649   5.957   5.571   2.599
  209WAT     H2  650   5.874   5.471   2.678
  210WAT      O  651   6.595   6.530   1.830
  210WAT     H1  652   6.534   6.577   1.774
  210WAT     H2  653   6.647   6.600   1.872
  211WAT      O  654   6.082   6.483   2.498
  211WAT     H1  655   6.048   6.546   2.562
  211WAT     H2  656   6.099   6.536   2.420
  212WAT      O  657   6.933   5.865   2.245
  212WAT     H1  658   6.863   5.893   2.303
  212WAT     H2  659   6.969   5.946   2.208
  213WAT      O  660   5.925   5.690   2.481
  213WAT     H1  661   5.959   5.775   2.451
  213WAT     H2  662   5.831   5.705   2.492
  214WAT      O  663   5.532   6.599   1.567
  214WAT     H1  664   5.495   6.648   1.494
  214WAT     H2  665   5.558   6.666   1.630
  215WAT      O  666   6.293   5.439   2.113
  215WAT     H1  667   6.324   5.384   2.042
  215WAT     H2  668   6.200   5.453   2.095
  216WAT      O  669   6.978   6.683   1.851
  216WAT     H1  670   6.967   6.589   1.864
  216WAT     H2  671   6.977   6.719   1.940
  217WAT      O  672   6.788   6.501   2.475
  217WAT     H1  673   6.830   6.480   2.392
  217WAT     H2  674   6.861   6.527   2.532
  218WAT      O  675   6.532   6.246   1.787
  218WAT     H1  676   6.439   6.239   1.810
  218WAT     H2  677   6.547   6.339   1.775
  219WAT      O  678   6.531   5.873   1.486
  219WAT     H1  679   6.437   5.889   1.495
  219WAT     H2  680   6.563   5.945   1.432
  220WAT      O  681   6.935   6.402   1.837
  220WAT     H1  682   6.873   6.368   1.772
  220WAT     H2  683   6.933   6.337   1.908
  221WAT      O  684   6.879   6.020   2.579
  221WAT     H1  685   6.838   6.102   2.604
  221WAT     H2  686   6.806   5.961   2.560
  222WAT      O  687   6.093   6.298   2.065
  222WAT     H1  688   6.052   6.227   2.015
  222WAT     H2  689   6.101   6.264   2.154
  223WAT      O  690   6.139   6.667   2.281
  223WAT     H1  691   6.110   6.606   2.213
  223WAT     H2  692   6.234   6.671   2.270
  224WAT      O  693   5.964   5.976   2.443
  224WAT     H1  694   6.019   5.987   2.365
  224WAT     H2  695   6.015   6.013   2.514
  225WAT      O  696   6.049   6.641   2.946
  225WAT     H1  697   5.959   6.663   2.971
  225WAT     H2  698   6.051   6.653   2.852
  226WAT      O  699   6.753   6.326   1.538
  226WAT     H1  700   6.797   6.242   1.523
  226WAT     H2  701   6.824   6.389   1.546
  227WAT      O  702   5.931   6.328   2.804
  227WAT     H1  703   5.917   6.415   2.841
  227WAT     H2  704   5.843   6.294   2.789
  228WAT      O  705   5.763   6.188   1.815
  228WAT     H1  706   5.751   6.260   1.754
  228WAT     H2  707   5.732   6.111   1.767
  229WAT      O  708   5.526   6.505   2.396
  229WAT     H1  709   5.534   6.518   2.301
  229WAT     H2  710   5.588   6.434   2.415
  230WAT      O  711   5.651   6.675   2.037
  230WAT     H1  712   5.610   6.689   1.951
  230WAT     H2  713   5.740   6.646   2.016
  231WAT      O  714   5.532   6.609   2.650
  231WAT     H1  715   5.548   6.562   2.568
  231WAT     H2  716   5.579   6.558   2.716
  232WAT      O  717   6.009   5.522   2.153
  232WAT     H1  718   5.965   5.600   2.120
  232WAT     H2  719   6.065   5.554   2.224
  233WAT      O  720   6.438   5.809   2.714
  233WAT     H1  721   6.392   5.830   2.795
  233WAT     H2  722   6.398   5.727   2.683
  234WAT      O  723   6.938   5.931   2.827
  234WAT     H1  724   6.853   5.901   2.859
  234WAT     H2  725   6.922   5.955   2.735
  235WAT      O  726   6.648   6.081   3.037
  235WAT     H1  727   6.680   5.997   3.003
  235WAT     H2  728   6.726   6.133   3.051
  236WAT      O  729   6.321   5.484   1.641
  236WAT     H1  730   6.258   5.484   1.714
  236WAT     H2  731   6.312   5.397   1.602
  237WAT      O  732   6.213   5.577   2.339
  237WAT     H1  733   6.243   5.667   2.331
  237WAT     H2  734   6.268   5.528   2.278
  238WAT      O  735   5.988   6.034   1.926
  238WAT     H1  736   5.966   6.013   2.017
  238WAT     H2  737   5.910   6.078   1.892
  239WAT      O  738   6.711   6.035   1.786
  239WAT     H1  739   6.651   6.107   1.768
  239WAT     H2  740   6.766   6.029   1.708
  240WAT      O  741   6.232   6.124   2.993
  240WAT     H1  742   6.223   6.030   2.978
  240WAT     H2  743   6.317   6.146   2.953
  241WAT      O  744   6.572   5.899   1.989
  241WAT     H1  745   6.611   5.930   1.908
  241WAT     H2  746   6.608   5.811   2.000
  242WAT      O  747   5.746   5.765   2.808
  242WAT     H1  748   5.706   5.850   2.829
  242WAT     H2  749   5.677   5.702   2.827
  243WAT      O  750   6.403   5.774   3.115
  243WAT     H1  751   6.334   5.754   3.178
  243WAT     H2  752   6.477   5.802   3.168
  244WAT      O  753   5.476   5.558   2.211
  244WAT     H1  754   5.447   5.615   2.283
  244WAT     H2  755   5.550   5.510   2.248
  245WAT      O  756   5.494   5.952   1.332
  245WAT     H1  757   5.486   6.046   1.346
  245WAT     H2  758   5.459   5.938   1.244
  246WAT      O  759   6.631   6.158   2.399
  246WAT     H1  760   6.557   6.209   2.433
  246WAT     H2  761   6.591   6.076   2.368
  247WAT      O  762   6.274   5.825   2.239
  247WAT     H1  763   6.275   5.781   2.154
  247WAT     H2  764   6.364   5.857   2.250
  248WAT      O  765   5.859   5.814   2.135
  248WAT     H1  766   5.825   5.861   2.211
  248WAT     H2  767   5.783   5.768   2.099
  249WAT      O  768   6.281   5.925   1.538
  249WAT     H1  769   6.293   5.921   1.633
  249WAT     H2  770   6.242   6.012   1.523
  250WAT      O  771   6.677   5.703   2.340
  250WAT     H1  772   6.679   5.748   2.424
  250WAT     H2  773   6.652   5.613   2.361
  251WAT      O  774   6.182   6.156   1.478
  251WAT     H1  775   6.125   6.112   1.415
  251WAT     H2  776   6.253   6.192   1.425
  252WAT      O  777   5.689   6.546   2.866
  252WAT     H1  778   5.651   6.482   2.925
  252WAT     H2  779   5.721   6.617   2.923
  253WAT      O  780   6.304   6.231   2.414
  253WAT     H1  781   6.341   6.184   2.488
  253WAT     H2  782   6.285   6.319   2.448
  254WAT      O  783   5.591   5.706   2.027
  254WAT     H1  784   5.562   5.669   2.110
  254WAT     H2  785   5.585   5.633   1.965
  255WAT      O  786   6.083   6.135   2.646
  255WAT     H1  787   6.053   6.223   2.668
  255WAT     H2  788   6.179   6.141   2.649
  256WAT      O  789   5.936   6.556   1.705
  256WAT     H1  790   5.859   6.502   1.689
  256WAT     H2  791   6.009   6.504   1.671
  257WAT      O  792   6.558   5.595   1.699
  257WAT     H1  793   6.477   5.545   1.691
  257WAT     H2  794   6.539   5.679   1.657
  258WAT      O  795   6.550   6.463   2.873
  258WAT     H1  796   6.544   6.371   2.848
  258WAT     H2  797   6.487   6.472   2.945
  259WAT      O  798   6.830   6.032   1.528
  259WAT     H1  799   6.919   6.063   1.511
  259WAT     H2  800   6.827   5.945   1.489
  260WAT      O  801   5.941   6.523   2.069
  260WAT     H1  802   5.992   6.442   2.064
  260WAT     H2  803   5.895   6.517   2.153
  261WAT      O  804   6.429   6.649   1.596
  261WAT     H1  805   6.463   6.724   1.547
  261WAT     H2  806   6.346   6.681   1.633
  262WAT      O  807   5.689   6.219   2.760
  262WAT     H1  808   5.653   6.286   2.819
  262WAT     H2  809   5.660   6.136   2.797
  263WAT      O  810   6.009   6.265   3.049
  263WAT     H1  811   5.979   6.280   2.959
  263WAT     H2  812   6.086   6.209   3.039
  264WAT      O  813   6.718   6.582   2.133
  264WAT     H1  814   6.753   6.522   2.067
  264WAT     H2  815   6.629   6.549   2.150
  265WAT      O  816   6.326   6.658   1.873
  265WAT     H1  817   6.395   6.712   1.912
  265WAT     H2  818   6.248   6.712   1.877
  266WAT      O  819   5.540   6.219   1.423
  266WAT     H1  820   5.627   6.248   1.451
  266WAT     H2  821   5.491   6.301   1.411
  267WAT      O  822   6.256   6.358   1.835
  267WAT     H1  823   6.302   6.439   1.857
  267WAT     H2  824   6.221   6.326   1.918
  268WAT      O  825   5.847   5.392   1.882
  268WAT     H1  826   5.834   5.392   1.977
  268WAT     H2  827   5.764   5.426   1.847
  269WAT      O  828   5.547   5.568   2.828
  269WAT     H1  829   5.475   5.588   2.888
  269WAT     H2  830   5.589   5.491   2.865
  270WAT      O  831   5.739   6.401   1.635
  270WAT     H1  832   5.678   6.475   1.636
  270WAT     H2  833   5.786   6.410   1.553
  271WAT      O  834   6.696   5.818   2.603
  271WAT     H1  835   6.733   5.735   2.636
  271WAT     H2  836   6.610   5.824   2.645
  272WAT      O  837   6.229   5.941   1.825
  272WAT     H1  838   6.159   5.988   1.870
  272WAT     H2  839   6.258   5.875   1.889
  273WAT      O  840   6.392   6.083   2.625
  273WAT     H1  841   6.442   6.130   2.692
  273WAT     H2  842   6.406   5.991   2.646
  274WAT      O  843   6.633   5.613   1.969
  274WAT     H1  844   6.620   5.615   1.874
  274WAT     H2  845   6.727   5.618   1.981
  275WAT      O  846   6.050   5.772   1.563
  275WAT     H1  847   6.135   5.816   1.556
  275WAT     H2  848   6.013   5.803   1.646
  276WAT      O  849   6.942   6.229   2.054
  276WAT     H1  850   6.848   6.230   2.072
  276WAT     H2  851   6.973   6.150   2.099
  277WAT      O  852   5.940   6.397   1.410
  277WAT     H1  853   6.016   6.386   1.467
  277WAT     H2  854   5.947   6.328   1.345
  278WAT      O  855   5.809   6.140   1.479
  278WAT     H1  856   5.817   6.046   1.490
  278WAT     H2  857   5.898   6.173   1.489
  279WAT      O  858   6.674   6.685   3.103
  279WAT     H1  859   6.613   6.687   3.029
  279WAT     H2  860   6.643   6.611   3.156
  280WAT      O  861   5.562   6.323   3.002
  280WAT     H1  862   5.612   6.265   3.059
  280WAT     H2  863   5.488   6.351   3.056
  281WAT      O  864   6.252   6.595   1.358
  281WAT     H1  865   6.242   6.533   1.430
  281WAT     H2  866   6.235   6.542   1.279
  282WAT      O  867   6.267   6.463   2.956
  282WAT     H1  868   6.191   6.520   2.947
  282WAT     H2  869   6.285   6.434   2.866
  283WAT      O  870   6.576   6.501   1.418
  283WAT     H1  871   6.521   6.546   1.483
  283WAT     H2  872   6.638   6.450   1.470
  284WAT      O  873   5.765   6.137   3.092
  284WAT     H1  874   5.769   6.107   3.183
  284WAT     H2  875   5.851   6.177   3.076
  285WAT      O  876   6.143   6.397   1.608
  285WAT     H1  877   6.185   6.380   1.692
  285WAT     H2  878   6.155   6.316   1.558
  286WAT      O  879   5.959   5.995   2.888
  286WAT     H1  880   5.906   5.946   2.826
  286WAT     H2  881   6.026   6.038   2.835
  287WAT      O  882   6.394   6.299   1.333
  287WAT     H1  883   6.446   6.228   1.296
  287WAT     H2  884   6.459   6.363   1.363
  288WAT      O  885   6.849   6.441   2.865
  288WAT     H1  886   6.890   6.457   2.950
  288WAT     H2  887   6.755   6.454   2.881
  289WAT      O  888   6.896   6.175   3.065
  289WAT     H1  889   6.954   6.100   3.056
  289WAT     H2  890   6.914   6.228   2.988
  290WAT      O  891   6.008   5.691   2.896
  290WAT     H1  892   5.998   5.630   2.824
  290WAT     H2  893   5.950   5.764   2.874
  291WAT      O  894   6.284   5.547   2.600
  291WAT     H1  895   6.240   5.549   2.515
  291WAT     H2  896   6.221   5.507   2.659
  292WAT      O  897   6.325   6.437   2.662
  292WAT     H1  898   6.367   6.521   2.645
  292WAT     H2  899   6.233   6.450   2.639
  293WAT      O  900   6.559   6.210   2.800
  293WAT     H1  901   6.571   6.150   2.874
  293WAT     H2  902   6.645   6.214   2.758
  294WAT      O  903   6.793   6.265   2.658
  294WAT     H1  904   6.740   6.318   2.597
  294WAT     H2  905   6.827   6.328   2.721
  295WAT      O  906   6.032   6.004   1.302
  295WAT     H1  907   6.012   5.918   1.338
  295WAT     H2  908   6.015   5.995   1.209
  296WAT      O  909   6.235   5.864   2.926
  296WAT     H1  910   6.294   5.833   2.995
  296WAT     H2  911   6.154   5.817   2.942
  297WAT      O  912   6.717   5.826   2.949
  297WAT     H1  913   6.648   5.760   2.943
  297WAT     H2  914   6.789   5.781   2.994
  298WAT      O  915   6.780   5.485   1.555
  298WAT     H1  916   6.808   5.401   1.591
  298WAT     H2  917   6.703   5.508   1.607
  299WAT      O  918   5.912   5.714   1.301
  299WAT     H1  919   5.943   5.715   1.210
  299WAT     H2  920   5.986   5.679   1.351
  300WAT      O  921   6.234   5.608   1.400
  300WAT     H1  922   6.199   5.541   1.342
  300WAT     H2  923   6.254   5.562   1.481
  301WAT      O  924   5.815   6.645   1.384
  301WAT     H1  925   5.858   6.699   1.450
  301WAT     H2  926   5.863   6.562   1.385
  302WAT      O  927   5.568   6.261   2.039
  302WAT     H1  928   5.503   6.234   1.975
  302WAT     H2  929   5.652   6.250   1.994
  303WAT      O  930   6.863   5.741   1.461
  303WAT     H1  931   6.905   5.722   1.377
  303WAT     H2  932   6.832   5.656   1.493
  304WAT      O  933   5.672   6.300   2.493
  304WAT     H1  934   5.709   6.291   2.581
  304WAT     H2  935   5.615   6.224   2.483
  305WAT      O  936   5.627   5.991   2.884
  305WAT     H1  937   5.538   5.988   2.918
  305WAT     H2  938   5.681   6.011   2.960
  306WAT      O  939   5.490   5.982   1.634
  306WAT     H1  940   5.399   6.009   1.616
  306WAT     H2  941   5.538   6.009   1.556
  307WAT      O  942   5.744   5.888   1.424
  307WAT     H1  943   5.815   5.846   1.376
  307WAT     H2  944   5.672   5.895   1.361
  308WAT      O  945   5.709   5.493   1.329
  308WAT     H1  946   5.781   5.547   1.360
  308WAT     H2  947   5.736   5.466   1.241
  309WAT      O  948   5.677   5.418   2.319
  309WAT     H1  949   5.742   5.363   2.275
  309WAT     H2  950   5.720   5.444   2.401
  310WAT      O  951   5.653   5.434   2.593
  310WAT     H1  952   5.618   5.480   2.670
  310WAT     H2  953   5.620   5.345   2.601
  311WAT      O  954   6.404   5.553   2.945
  311WAT     H1  955   6.398   5.612   3.020
  311WAT     H2  956   6.498   5.542   2.931
  312WAT      O  957   6.668   5.519   2.909
  312WAT     H1  958   6.729   5.551   2.843
  312WAT     H2  959   6.722   5.470   2.971
  313WAT      O  960   5.720   5.387   2.921
  313WAT     H1  961   5.775   5.369   2.844
  313WAT     H2  962   5.727   5.308   2.974
  314WAT      O  963   6.742   5.375   2.542
  314WAT     H1  964   6.654   5.408   2.522
  314WAT     H2  965   6.731   5.328   2.624
  315WAT      O  966   6.833   5.596   2.680
  315WAT     H1  967   6.800   5.514   2.642
  315WAT     H2  968   6.927   5.592   2.668
  316WAT      O  969   6.517   5.467   2.436
  316WAT     H1  970   6.438   5.514   2.464
  316WAT     H2  971   6.487   5.376   2.425
  317WAT      O  972   5.651   5.497   1.688
  317WAT     H1  973   5.727   5.509   1.631
  317WAT     H2  974   5.605   5.581   1.683
  318WAT      O  975   6.305   5.709   1.987
  318WAT     H1  976   6.224   5.671   1.953
  318WAT     H2  977   6.356   5.633   2.017
  319WAT      O  978   6.755   5.375   2.111
  319WAT     H1  979   6.816   5.432   2.158
  319WAT     H2  980   6.681   5.432   2.088
  320WAT      O  981   5.888   5.550   1.542
  320WAT     H1  982   5.941   5.471   1.529
  320WAT     H2  983   5.952   5.618   1.565
  321WAT      O  984   6.108   5.524   1.847
  321WAT     H1  985   6.045   5.454   1.864
  321WAT     H2  986   6.054   5.600   1.826
  322WAT      O  987   6.120   5.452   3.091
  322WAT     H1  988   6.092   5.502   3.014
  322WAT     H2  989   6.158   5.372   3.054
  323WAT      O  990   6.780   5.393   3.149
  323WAT     H1  991   6.769   5.425   3.238
  323WAT     H2  992   6.862   5.433   3.119
  324WAT      O  993   6.484   6.373   0.373
  324WAT     H1  994   6.407   6.325   0.402
  324WAT     H2  995   6.549   6.305   0.356
  325WAT      O  996   5.886   6.404   0.461
  325WAT     H1  997   5.803   6.378   0.501
  325WAT     H2  998   5.947   6.411   0.534
  326WAT      O  999   5.523   6.160   0.428
  326WAT     H1 1000   5.580   6.083   0.428
  326WAT     H2 1001   5.523   6.190   0.337
  327WAT      O 1002   6.428   6.640   0.374
  327WAT     H1 1003   6.421   6.546   0.358
  327WAT     H2 1004   6.504   6.649   0.431
  328WAT      O 1005   5.647   5.701   0.606
  328WAT     H1 1006   5.629   5.611   0.634
  328WAT     H2 1007   5.607   5.756   0.674
  329WAT      O 1008   6.531   5.921   0.397
  329WAT     H1 1009   6.569   5.834   0.385
  329WAT     H2 1010   6.521   5.955   0.307
  330WAT      O 1011   5.709   5.951   0.467
  330WAT     H1 1012   5.777   5.977   0.529
  330WAT     H2 1013   5.678   5.867   0.501
  331WAT      O 1014   6.128   6.055   0.376
  331WAT     H1 1015   6.179   6.105   0.440
  331WAT     H2 1016   6.182   5.978   0.358
  332WAT      O 1017   5.957   5.519   0.803
  332WAT     H1 1018   5.957   5.571   0.722
  332WAT     H2 1019   5.874   5.471   0.800
  333WAT      O 1020   6.082   6.483   0.620
  333WAT     H1 1021   6.048   6.546   0.685
  333WAT     H2 1022   6.099   6.536   0.542
  334WAT      O 1023   6.933   5.865   0.367
  334WAT     H1 1024   6.863   5.893   0.425
  334WAT     H2 1025   6.969   5.946   0.331
  335WAT      O 1026   5.925   5.690   0.603
  335WAT     H1 1027   5.959   5.775   0.574
  335WAT     H2 1028   5.831   5.705   0.615
  336WAT      O 1029   6.788   6.501   0.598
  336WAT     H1 1030   6.830   6.480   0.514
  336WAT     H2 1031   6.861   6.527   0.655
  337WAT      O 1032   6.879   6.020   0.701
  337WAT     H1 1033   6.838   6.102   0.727
  337WAT     H2 1034   6.806   5.961   0.682
  338WAT      O 1035   6.139   6.667   0.404
  338WAT     H1 1036   6.110   6.606   0.336
  338WAT     H2 1037   6.234   6.671   0.393
  339WAT      O 1038   5.964   5.976   0.566
  339WAT     H1 1039   6.019   5.987   0.488
  339WAT     H2 1040   6.015   6.013   0.637
  340WAT      O 1041   6.049   6.641   1.069
  340WAT     H1 1042   5.959   6.663   1.094
  340WAT     H2 1043   6.051   6.653   0.974
  341WAT      O 1044   5.931   6.328   0.927
  341WAT     H1 1045   5.917   6.415   0.963
  341WAT     H2 1046   5.843   6.294   0.912
  342WAT      O 1047   5.526   6.505   0.518
  342WAT     H1 1048   5.534   6.518   0.424
  342WAT     H2 1049   5.588   6.434   0.538
  343WAT      O 1050   5.532   6.609   0.772
  343WAT     H1 1051   5.548   6.562   0.690
  343WAT     H2 1052   5.579   6.558   0.839
  344WAT      O 1053   6.009   5.522   0.276
  344WAT     H1 1054   5.965   5.600   0.243
  344WAT     H2 1055   6.065   5.554   0.347
  345WAT      O 1056   6.438   5.809   0.836
  345WAT     H1 1057   6.392   5.830   0.917
  345WAT     H2 1058   6.398   5.727   0.806
  346WAT      O 1059   6.938   5.931   0.949
  346WAT     H1 1060   6.853   5.901   0.981
  346WAT     H2 1061   6.922   5.955   0.858
  347WAT      O 1062   6.648   6.081   1.159
  347WAT     H1 1063   6.680   5.997   1.125
  347WAT     H2 1064   6.726   6.133   1.174
  348WAT      O 1065   6.213   5.577   0.462
  348WAT     H1 1066   6.243   5.667   0.454
  348WAT     H2 1067   6.268   5.528   0.400
  349WAT      O 1068   6.232   6.124   1.115
  349WAT     H1 1069   6.223   6.030   1.100
  349WAT     H2 1070   6.317   6.146   1.076
  350WAT      O 1071   5.746   5.765   0.931
  350WAT     H1 1072   5.706   5.850   0.951
  350WAT     H2 1073   5.677   5.702   0.950
  351WAT      O 1074   6.403   5.774   1.238
  351WAT     H1 1075   6.334   5.754   1.301
  351WAT     H2 1076   6.477   5.802   1.291
  352WAT      O 1077   5.476   5.558   0.334
  352WAT     H1 1078   5.447   5.615   0.405
  352WAT     H2 1079   5.550   5.510   0.370
  353WAT      O 1080   6.631   6.158   0.521
  353WAT     H1 1081   6.557   6.209   0.556
  353WAT     H2 1082   6.591   6.076   0.491
  354WAT      O 1083   6.274   5.825   0.362
  354WAT     H1 1084   6.275   5.781   0.277
  354WAT     H2 1085   6.364   5.857   0.372
  355WAT      O 1086   5.859   5.814   0.258
  355WAT     H1 1087   5.825   5.861   0.333
  355WAT     H2 1088   5.783   5.768   0.222
  356WAT      O 1089   6.677   5.703   0.462
  356WAT     H1 1090   6.679   5.748   0.547
  356WAT     H2 1091   6.652   5.613   0.484
  357WAT      O 1092   5.689   6.546   0.988
  357WAT     H1 1093   5.651   6.482   1.048
  357WAT     H2 1094   5.721   6.617   1.045
  358WAT      O 1095   6.304   6.231   0.536
  358WAT     H1 1096   6.341   6.184   0.611
  358WAT     H2 1097   6.285   6.319   0.570
  359WAT      O 1098   6.083   6.135   0.768
  359WAT     H1 1099   6.053   6.223   0.791
  359WAT     H2 1100   6.179   6.141   0.772
  360WAT      O 1101   6.550   6.463   0.996
  360WAT     H1 1102   6.544   6.371   0.970
  360WAT     H2 1103   6.487   6.472   1.067
  361WAT      O 1104   5.941   6.523   0.192
  361WAT     H1 1105   5.992   6.442   0.186
  361WAT     H2 1106   5.895   6.517   0.276
  362WAT      O 1107   5.689   6.219   0.883
  362WAT     H1 1108   5.653   6.286   0.942
  362WAT     H2 1109   5.660   6.136   0.920
  363WAT      O 1110   6.009   6.265   1.171
  363WAT     H1 1111   5.979   6.280   1.081
  363WAT     H2 1112   6.086   6.209   1.162
  364WAT      O 1113   6.718   6.582   0.255
  364WAT     H1 1114   6.753   6.522   0.189
  364WAT     H2 1115   6.629   6.549   0.272
  365WAT      O 1116   5.547   5.568   0.951
  365WAT     H1 1117   5.475   5.588   1.011
  365WAT     H2 1118   5.589   5.491   0.988
  366WAT      O 1119   6.696   5.818   0.726
  366WAT     H1 1120   6.733   5.735   0.758
  366WAT     H2 1121   6.610   5.824   0.767
  367WAT      O 1122   6.392   6.083   0.748
  367WAT     H1 1123   6.442   6.130   0.814
  367WAT     H2 1124   6.406   5.991   0.769
  368WAT      O 1125   6.942   6.229   0.177
  368WAT     H1 1126   6.848   6.230   0.194
  368WAT     H2 1127   6.973   6.150   0.221
  369WAT      O 1128   6.674   6.685   1.225
  369WAT     H1 1129   6.613   6.687   1.151
  369WAT     H2 1130   6.643   6.611   1.279
  370WAT      O 1131   5.562   6.323   1.125
  370WAT     H1 1132   5.612   6.265   1.182
  370WAT     H2 1133   5.488   6.351   1.179
  371WAT      O 1134   6.267   6.463   1.078
  371WAT     H1 1135   6.191   6.520   1.070
  371WAT     H2 1136   6.285   6.434   0.989
  372WAT      O 1137   5.765   6.137   1.214
  372WAT     H1 1138   5.769   6.107   1.305
  372WAT     H2 1139   5.851   6.177   1.198
  373WAT      O 1140   5.959   5.995   1.011
  373WAT     H1 1141   5.906   5.946   0.948
  373WAT     H2 1142   6.026   6.038   0.958
  374WAT      O 1143   6.849   6.441   0.987
  374WAT     H1 1144   6.890   6.457   1.072
  374WAT     H2 1145   6.755   6.454   1.004
  375WAT      O 1146   6.896   6.175   1.188
  375WAT     H1 1147   6.954   6.100   1.179
  375WAT     H2 1148   6.914   6.228   1.110
  376WAT      O 1149   6.008   5.691   1.019
  376WAT     H1 1150   5.998   5.630   0.946
  376WAT     H2 1151   5.950   5.764   0.996
  377WAT      O 1152   6.284   5.547   0.722
  377WAT     H1 1153   6.240   5.549   0.638
  377WAT     H2 1154   6.221   5.507   0.782
  378WAT      O 1155   6.325   6.437   0.784
  378WAT     H1 1156   6.367   6.521   0.767
  378WAT     H2 1157   6.233   6.450   0.761
  379WAT      O 1158   6.559   6.210   0.923
  379WAT     H1 1159   6.571   6.150   0.997
  379WAT     H2 1160   6.645   6.214   0.881
  380WAT      O 1161   6.793   6.265   0.780
  380WAT     H1 1162   6.740   6.318   0.720
  380WAT     H2 1163   6.827   6.328   0.843
  381WAT      O 1164   6.235   5.864   1.049
  381WAT     H1 1165   6.294   5.833   1.117
  381WAT     H2 1166   6.154   5.817   1.064
  382WAT      O 1167   6.717   5.826   1.072
  382WAT     H1 1168   6.648   5.760   1.065
  382WAT     H2 1169   6.789   5.781   1.116
  383WAT      O 1170   5.672   6.300   0.616
  383WAT     H1 1171   5.709   6.291   0.704
  383WAT     H2 1172   5.615   6.224   0.606
  384WAT      O 1173   5.627   5.991   1.006
  384WAT     H1 1174   5.538   5.988   1.040
  384WAT     H2 1175   5.681   6.011   1.083
  385WAT      O 1176   5.677   5.418   0.441
  385WAT     H1 1177   5.742   5.363   0.397
  385WAT     H2 1178   5.720   5.444   0.523
  386WAT      O 1179   5.653   5.434   0.716
  386WAT     H1 1180   5.618   5.480   0.792
  386WAT     H2 1181   5.620   5.345   0.724
  387WAT      O 1182   6.404   5.553   1.068
  387WAT     H1 1183   6.398   5.612   1.143
  387WAT     H2 1184   6.498   5.542   1.053
  388WAT      O 1185   6.668   5.519   1.032
  388WAT     H1 1186   6.729   5.551   0.965
  388WAT     H2 1187   6.722   5.470   1.094
  389WAT      O 1188   5.720   5.387   1.043
  389WAT     H1 1189   5.775   5.369   0.967
  389WAT     H2 1190   5.727   5.308   1.097
  390WAT      O 1191   6.742   5.375   0.664
  390WAT     H1 1192   6.654   5.408   0.644
  390WAT     H2 1193   6.731   5.328   0.747
  391WAT      O 1194   6.833   5.596   0.803
  391WAT     H1 1195   6.800   5.514   0.765
  391WAT     H2 1196   6.927   5.592   0.790
  392WAT      O 1197   6.517   5.467   0.558
  392WAT     H1 1198   6.438   5.514   0.586
  392WAT     H2 1199   6.487   5.376   0.547
  393WAT      O 1200   6.755   5.375   0.233
  393WAT     H1 1201   6.816   5.432   0.281
  393WAT     H2 1202   6.681   5.432   0.211
  394WAT      O 1203   6.120   5.452   1.213
  394WAT     H1 1204   6.092   5.502   1.137
  394WAT     H2 1205   6.158   5.372   1.177
  395WAT      O 1206   6.780   5.393   1.271
  395WAT     H1 1207   6.769   5.425   1.361
  395WAT     H2 1208   6.862   5.433   1.242
  396WAT      O 1209   6.671   4.318   5.817
  396WAT     H1 1210   6.663   4.226   5.790
  396WAT     H2 1211   6.630   4.367   5.747
  397WAT      O 1212   6.484   4.495   6.005
  397WAT     H1 1213   6.407   4.447   6.034
  397WAT     H2 1214   6.549   4.427   5.988
  398WAT      O 1215   6.886   4.936   5.883
  398WAT     H1 1216   6.840   4.859   5.916
  398WAT     H2 1217   6.967   4.939   5.934
  399WAT      O 1218   5.884   4.930   6.113
  399WAT     H1 1219   5.914   4.841   6.095
  399WAT     H2 1220   5.958   4.986   6.090
  400WAT      O 1221   5.727   4.023   5.472
  400WAT     H1 1222   5.638   4.057   5.461
  400WAT     H2 1223   5.755   4.003   5.382
  401WAT      O 1224   5.523   4.283   6.060
  401WAT     H1 1225   5.580   4.206   6.060
  401WAT     H2 1226   5.523   4.313   5.969
  402WAT      O 1227   6.509   5.165   5.845
  402WAT     H1 1228   6.447   5.210   5.788
  402WAT     H2 1229   6.594   5.180   5.805
  403WAT      O 1230   6.428   4.763   6.006
  403WAT     H1 1231   6.421   4.669   5.990
  403WAT     H2 1232   6.504   4.772   6.063
  404WAT      O 1233   6.531   4.044   6.029
  404WAT     H1 1234   6.569   3.956   6.018
  404WAT     H2 1235   6.521   4.077   5.940
  405WAT      O 1236   5.944   3.881   5.575
  405WAT     H1 1237   5.955   3.971   5.606
  405WAT     H2 1238   5.853   3.876   5.546
  406WAT      O 1239   6.128   4.178   6.008
  406WAT     H1 1240   6.179   4.228   6.072
  406WAT     H2 1241   6.182   4.100   5.991
  407WAT      O 1242   6.595   4.653   5.585
  407WAT     H1 1243   6.534   4.699   5.528
  407WAT     H2 1244   6.647   4.722   5.626
  408WAT      O 1245   6.933   3.987   5.999
  408WAT     H1 1246   6.863   4.016   6.057
  408WAT     H2 1247   6.969   4.068   5.963
  409WAT      O 1248   5.532   4.722   5.322
  409WAT     H1 1249   5.495   4.770   5.249
  409WAT     H2 1250   5.558   4.789   5.385
  410WAT      O 1251   6.293   3.562   5.868
  410WAT     H1 1252   6.324   3.506   5.796
  410WAT     H2 1253   6.200   3.575   5.850
  411WAT      O 1254   6.848   5.133   6.097
  411WAT     H1 1255   6.850   5.093   6.010
  411WAT     H2 1256   6.793   5.211   6.087
  412WAT      O 1257   6.978   4.806   5.606
  412WAT     H1 1258   6.967   4.711   5.618
  412WAT     H2 1259   6.977   4.842   5.695
  413WAT      O 1260   6.532   4.368   5.542
  413WAT     H1 1261   6.439   4.362   5.565
  413WAT     H2 1262   6.547   4.462   5.530
  414WAT      O 1263   6.531   3.995   5.241
  414WAT     H1 1264   6.437   4.011   5.250
  414WAT     H2 1265   6.563   4.067   5.187
  415WAT      O 1266   6.935   4.524   5.592
  415WAT     H1 1267   6.873   4.491   5.527
  415WAT     H2 1268   6.933   4.460   5.663
  416WAT      O 1269   6.093   4.421   5.820
  416WAT     H1 1270   6.052   4.350   5.770
  416WAT     H2 1271   6.101   4.386   5.909
  417WAT      O 1272   6.139   4.789   6.036
  417WAT     H1 1273   6.110   4.729   5.968
  417WAT     H2 1274   6.234   4.793   6.025
  418WAT      O 1275   6.753   4.448   5.293
  418WAT     H1 1276   6.797   4.364   5.278
  418WAT     H2 1277   6.824   4.512   5.301
  419WAT      O 1278   6.564   4.942   5.690
  419WAT     H1 1279   6.608   5.016   5.648
  419WAT     H2 1280   6.557   4.966   5.782
  420WAT      O 1281   5.763   4.310   5.570
  420WAT     H1 1282   5.751   4.383   5.509
  420WAT     H2 1283   5.732   4.233   5.522
  421WAT      O 1284   5.651   4.797   5.792
  421WAT     H1 1285   5.610   4.812   5.706
  421WAT     H2 1286   5.740   4.769   5.771
  422WAT      O 1287   6.830   5.241   5.425
  422WAT     H1 1288   6.814   5.212   5.515
  422WAT     H2 1289   6.814   5.163   5.372
  423WAT      O 1290   6.078   5.219   5.603
  423WAT     H1 1291   6.061   5.127   5.582
  423WAT     H2 1292   5.993   5.255   5.627
  424WAT      O 1293   6.801   4.992   5.281
  424WAT     H1 1294   6.731   4.992   5.215
  424WAT     H2 1295   6.875   4.949   5.238
  425WAT      O 1296   6.757   5.154   5.689
  425WAT     H1 1297   6.803   5.076   5.720
  425WAT     H2 1298   6.791   5.225   5.743
  426WAT      O 1299   6.009   3.645   5.908
  426WAT     H1 1300   5.965   3.723   5.875
  426WAT     H2 1301   6.065   3.677   5.979
  427WAT      O 1302   6.321   3.607   5.396
  427WAT     H1 1303   6.258   3.606   5.469
  427WAT     H2 1304   6.312   3.520   5.357
  428WAT      O 1305   6.213   3.699   6.094
  428WAT     H1 1306   6.243   3.790   6.086
  428WAT     H2 1307   6.268   3.650   6.033
  429WAT      O 1308   5.988   4.157   5.681
  429WAT     H1 1309   5.966   4.135   5.771
  429WAT     H2 1310   5.910   4.200   5.646
  430WAT      O 1311   6.711   4.158   5.541
  430WAT     H1 1312   6.651   4.230   5.522
  430WAT     H2 1313   6.766   4.151   5.463
  431WAT      O 1314   6.572   4.021   5.744
  431WAT     H1 1315   6.611   4.053   5.663
  431WAT     H2 1316   6.608   3.933   5.755
  432WAT      O 1317   5.476   3.680   5.966
  432WAT     H1 1318   5.447   3.737   6.037
  432WAT     H2 1319   5.550   3.632   6.002
  433WAT      O 1320   5.494   4.074   5.087
  433WAT     H1 1321   5.486   4.169   5.101
  433WAT     H2 1322   5.459   4.060   4.999
  434WAT      O 1323   6.274   3.948   5.994
  434WAT     H1 1324   6.275   3.904   5.909
  434WAT     H2 1325   6.364   3.980   6.005
  435WAT      O 1326   5.859   3.936   5.890
  435WAT     H1 1327   5.825   3.984   5.966
  435WAT     H2 1328   5.783   3.891   5.854
  436WAT      O 1329   6.281   4.048   5.293
  436WAT     H1 1330   6.293   4.044   5.388
  436WAT     H2 1331   6.242   4.134   5.277
  437WAT      O 1332   6.182   4.279   5.233
  437WAT     H1 1333   6.125   4.234   5.170
  437WAT     H2 1334   6.253   4.315   5.179
  438WAT      O 1335   5.591   3.828   5.782
  438WAT     H1 1336   5.562   3.792   5.865
  438WAT     H2 1337   5.585   3.755   5.720
  439WAT      O 1338   5.936   4.679   5.460
  439WAT     H1 1339   5.859   4.625   5.444
  439WAT     H2 1340   6.009   4.627   5.426
  440WAT      O 1341   6.558   3.718   5.454
  440WAT     H1 1342   6.477   3.668   5.446
  440WAT     H2 1343   6.539   3.802   5.412
  441WAT      O 1344   6.830   4.155   5.283
  441WAT     H1 1345   6.919   4.186   5.266
  441WAT     H2 1346   6.827   4.067   5.244
  442WAT      O 1347   5.941   4.645   5.824
  442WAT     H1 1348   5.992   4.565   5.818
  442WAT     H2 1349   5.895   4.639   5.908
  443WAT      O 1350   6.429   4.772   5.351
  443WAT     H1 1351   6.463   4.846   5.302
  443WAT     H2 1352   6.346   4.803   5.387
  444WAT      O 1353   6.718   4.704   5.888
  444WAT     H1 1354   6.753   4.644   5.822
  444WAT     H2 1355   6.629   4.672   5.905
  445WAT      O 1356   6.326   4.780   5.628
  445WAT     H1 1357   6.395   4.835   5.666
  445WAT     H2 1358   6.248   4.835   5.632
  446WAT      O 1359   5.540   4.342   5.177
  446WAT     H1 1360   5.627   4.370   5.206
  446WAT     H2 1361   5.491   4.423   5.166
  447WAT      O 1362   6.256   4.481   5.590
  447WAT     H1 1363   6.302   4.562   5.612
  447WAT     H2 1364   6.221   4.449   5.673
  448WAT      O 1365   5.847   3.515   5.637
  448WAT     H1 1366   5.834   3.514   5.732
  448WAT     H2 1367   5.764   3.549   5.602
  449WAT      O 1368   5.577   5.263   5.234
  449WAT     H1 1369   5.613   5.323   5.169
  449WAT     H2 1370   5.563   5.318   5.311
  450WAT      O 1371   6.179   5.001   5.316
  450WAT     H1 1372   6.178   5.075   5.254
  450WAT     H2 1373   6.087   4.977   5.325
  451WAT      O 1374   5.739   4.524   5.390
  451WAT     H1 1375   5.678   4.598   5.391
  451WAT     H2 1376   5.786   4.533   5.308
  452WAT      O 1377   6.477   5.008   5.182
  452WAT     H1 1378   6.487   4.987   5.089
  452WAT     H2 1379   6.387   4.982   5.203
  453WAT      O 1380   6.229   4.064   5.580
  453WAT     H1 1381   6.159   4.110   5.624
  453WAT     H2 1382   6.258   3.998   5.644
  454WAT      O 1383   6.633   3.736   5.724
  454WAT     H1 1384   6.620   3.738   5.629
  454WAT     H2 1385   6.727   3.741   5.736
  455WAT      O 1386   6.341   5.260   5.652
  455WAT     H1 1387   6.367   5.256   5.559
  455WAT     H2 1388   6.246   5.247   5.651
  456WAT      O 1389   6.050   3.894   5.318
  456WAT     H1 1390   6.135   3.938   5.311
  456WAT     H2 1391   6.013   3.926   5.401
  457WAT      O 1392   6.942   4.352   5.809
  457WAT     H1 1393   6.848   4.353   5.827
  457WAT     H2 1394   6.973   4.273   5.854
  458WAT      O 1395   5.940   4.520   5.165
  458WAT     H1 1396   6.016   4.509   5.221
  458WAT     H2 1397   5.947   4.450   5.100
  459WAT      O 1398   5.809   4.263   5.234
  459WAT     H1 1399   5.817   4.168   5.245
  459WAT     H2 1400   5.898   4.296   5.244
  460WAT      O 1401   5.889   5.278   5.944
  460WAT     H1 1402   5.963   5.223   5.971
  460WAT     H2 1403   5.928   5.364   5.930
  461WAT      O 1404   5.578   4.885   5.531
  461WAT     H1 1405   5.485   4.909   5.530
  461WAT     H2 1406   5.624   4.967   5.519
  462WAT      O 1407   6.200   5.195   5.126
  462WAT     H1 1408   6.280   5.224   5.081
  462WAT     H2 1409   6.148   5.152   5.058
  463WAT      O 1410   6.252   4.717   5.113
  463WAT     H1 1411   6.242   4.656   5.185
  463WAT     H2 1412   6.235   4.665   5.034
  464WAT      O 1413   6.576   4.623   5.173
  464WAT     H1 1414   6.521   4.668   5.237
  464WAT     H2 1415   6.638   4.573   5.225
  465WAT      O 1416   6.143   4.519   5.363
  465WAT     H1 1417   6.185   4.503   5.447
  465WAT     H2 1418   6.155   4.438   5.313
  466WAT      O 1419   6.394   4.422   5.087
  466WAT     H1 1420   6.446   4.350   5.051
  466WAT     H2 1421   6.459   4.486   5.117
  467WAT      O 1422   6.032   4.127   5.057
  467WAT     H1 1423   6.012   4.040   5.093
  467WAT     H2 1424   6.015   4.118   4.963
  468WAT      O 1425   6.780   3.608   5.310
  468WAT     H1 1426   6.808   3.523   5.346
  468WAT     H2 1427   6.703   3.631   5.361
  469WAT      O 1428   5.912   3.837   5.056
  469WAT     H1 1429   5.943   3.837   4.965
  469WAT     H2 1430   5.986   3.802   5.106
  470WAT      O 1431   6.234   3.731   5.155
  470WAT     H1 1432   6.199   3.663   5.097
  470WAT     H2 1433   6.254   3.685   5.236
  471WAT      O 1434   6.451   5.230   5.316
  471WAT     H1 1435   6.540   5.264   5.319
  471WAT     H2 1436   6.454   5.158   5.254
  472WAT      O 1437   5.815   4.767   5.139
  472WAT     H1 1438   5.858   4.821   5.205
  472WAT     H2 1439   5.863   4.685   5.140
  473WAT      O 1440   5.536   5.046   5.884
  473WAT     H1 1441   5.569   4.959   5.861
  473WAT     H2 1442   5.579   5.067   5.968
  474WAT      O 1443   5.996   4.879   5.650
  474WAT     H1 1444   5.966   4.867   5.741
  474WAT     H2 1445   5.985   4.793   5.610
  475WAT      O 1446   5.568   4.384   5.794
  475WAT     H1 1447   5.503   4.357   5.730
  475WAT     H2 1448   5.652   4.373   5.749
  476WAT      O 1449   6.863   3.863   5.216
  476WAT     H1 1450   6.905   3.845   5.132
  476WAT     H2 1451   6.832   3.778   5.247
  477WAT      O 1452   5.490   4.105   5.388
  477WAT     H1 1453   5.399   4.131   5.371
  477WAT     H2 1454   5.538   4.132   5.310
  478WAT      O 1455   5.744   4.011   5.179
  478WAT     H1 1456   5.815   3.968   5.131
  478WAT     H2 1457   5.672   4.017   5.116
  479WAT      O 1458   5.709   3.616   5.083
  479WAT     H1 1459   5.781   3.670   5.115
  479WAT     H2 1460   5.736   3.589   4.996
  480WAT      O 1461   6.121   5.126   6.050
  480WAT     H1 1462   6.173   5.065   5.997
  480WAT     H2 1463   6.186   5.177   6.099
  481WAT      O 1464   5.589   5.237   5.692
  481WAT     H1 1465   5.572   5.173   5.762
  481WAT     H2 1466   5.502   5.257   5.657
  482WAT      O 1467   5.651   3.620   5.443
  482WAT     H1 1468   5.727   3.631   5.385
  482WAT     H2 1469   5.605   3.704   5.438
  483WAT      O 1470   6.305   3.831   5.742
  483WAT     H1 1471   6.224   3.794   5.708
  483WAT     H2 1472   6.356   3.756   5.772
  484WAT      O 1473   6.755   3.498   5.866
  484WAT     H1 1474   6.816   3.555   5.913
  484WAT     H2 1475   6.681   3.554   5.843
  485WAT      O 1476   5.749   5.106   5.437
  485WAT     H1 1477   5.697   5.144   5.367
  485WAT     H2 1478   5.742   5.169   5.509
  486WAT      O 1479   5.888   3.673   5.297
  486WAT     H1 1480   5.941   3.594   5.284
  486WAT     H2 1481   5.952   3.740   5.320
  487WAT      O 1482   6.108   3.646   5.602
  487WAT     H1 1483   6.045   3.576   5.619
  487WAT     H2 1484   6.054   3.722   5.581
  488WAT      O 1485   6.009   5.301   5.324
  488WAT     H1 1486   6.083   5.272   5.270
  488WAT     H2 1487   6.035   5.277   5.413
  489WAT      O 1488   5.925   4.913   5.325
  489WAT     H1 1489   5.863   4.959   5.380
  489WAT     H2 1490   5.937   4.828   5.368
  490WAT      O 1491   6.671   4.318   3.940
  490WAT     H1 1492   6.663   4.226   3.913
  490WAT     H2 1493   6.630   4.367   3.869
  491WAT      O 1494   6.484   4.495   4.128
  491WAT     H1 1495   6.407   4.447   4.157
  491WAT     H2 1496   6.549   4.427   4.111
  492WAT      O 1497   5.886   4.527   4.216
  492WAT     H1 1498   5.803   4.501   4.256
  492WAT     H2 1499   5.947   4.534   4.289
  493WAT      O 1500   6.886   4.936   4.006
  493WAT     H1 1501   6.840   4.859   4.039
  493WAT     H2 1502   6.967   4.939   4.057
  494WAT      O 1503   5.884   4.930   4.235
  494WAT     H1 1504   5.914   4.841   4.217
  494WAT     H2 1505   5.958   4.986   4.213
  495WAT      O 1506   5.727   4.023   3.594
  495WAT     H1 1507   5.638   4.057   3.584
  495WAT     H2 1508   5.755   4.003   3.505
  496WAT      O 1509   5.523   4.283   4.183
  496WAT     H1 1510   5.580   4.206   4.183
  496WAT     H2 1511   5.523   4.313   4.092
  497WAT      O 1512   6.509   5.165   3.968
  497WAT     H1 1513   6.447   5.210   3.911
  497WAT     H2 1514   6.594   5.180   3.928
  498WAT      O 1515   6.428   4.763   4.129
  498WAT     H1 1516   6.421   4.669   4.113
  498WAT     H2 1517   6.504   4.772   4.186
  499WAT      O 1518   5.647   3.823   4.361
  499WAT     H1 1519   5.629   3.734   4.389
  499WAT     H2 1520   5.607   3.878   4.429
  500WAT      O 1521   6.531   4.044   4.151
  500WAT     H1 1522   6.569   3.956   4.140
  500WAT     H2 1523   6.521   4.077   4.062
  501WAT      O 1524   5.944   3.881   3.698
  501WAT     H1 1525   5.955   3.971   3.728
  501WAT     H2 1526   5.853   3.876   3.669
  502WAT      O 1527   5.709   4.073   4.222
  502WAT     H1 1528   5.777   4.099   4.284
  502WAT     H2 1529   5.678   3.989   4.255
  503WAT      O 1530   6.128   4.178   4.131
  503WAT     H1 1531   6.179   4.228   4.195
  503WAT     H2 1532   6.182   4.100   4.113
  504WAT      O 1533   5.957   3.642   4.557
  504WAT     H1 1534   5.957   3.693   4.477
  504WAT     H2 1535   5.874   3.594   4.555
  505WAT      O 1536   6.595   4.653   3.707
  505WAT     H1 1537   6.534   4.699   3.651
  505WAT     H2 1538   6.647   4.722   3.749
  506WAT      O 1539   6.082   4.606   4.375
  506WAT     H1 1540   6.048   4.668   4.439
  506WAT     H2 1541   6.099   4.658   4.297
  507WAT      O 1542   6.933   3.987   4.122
  507WAT     H1 1543   6.863   4.016   4.180
  507WAT     H2 1544   6.969   4.068   4.086
  508WAT      O 1545   5.925   3.813   4.358
  508WAT     H1 1546   5.959   3.897   4.329
  508WAT     H2 1547   5.831   3.828   4.370
  509WAT      O 1548   6.003   4.803   4.557
  509WAT     H1 1549   6.065   4.870   4.529
  509WAT     H2 1550   5.917   4.843   4.548
  510WAT      O 1551   5.532   4.722   3.445
  510WAT     H1 1552   5.495   4.770   3.372
  510WAT     H2 1553   5.558   4.789   3.508
  511WAT      O 1554   6.293   3.562   3.991
  511WAT     H1 1555   6.324   3.506   3.919
  511WAT     H2 1556   6.200   3.575   3.972
  512WAT      O 1557   6.848   5.133   4.220
  512WAT     H1 1558   6.850   5.093   4.133
  512WAT     H2 1559   6.793   5.211   4.209
  513WAT      O 1560   6.978   4.806   3.729
  513WAT     H1 1561   6.967   4.711   3.741
  513WAT     H2 1562   6.977   4.842   3.817
  514WAT      O 1563   6.788   4.624   4.352
  514WAT     H1 1564   6.830   4.602   4.269
  514WAT     H2 1565   6.861   4.649   4.410
  515WAT      O 1566   6.532   4.368   3.664
  515WAT     H1 1567   6.439   4.362   3.687
  515WAT     H2 1568   6.547   4.462   3.653
  516WAT      O 1569   6.531   3.995   3.364
  516WAT     H1 1570   6.437   4.011   3.372
  516WAT     H2 1571   6.563   4.067   3.309
  517WAT      O 1572   6.935   4.524   3.715
  517WAT     H1 1573   6.873   4.491   3.650
  517WAT     H2 1574   6.933   4.460   3.785
  518WAT      O 1575   6.879   4.142   4.456
  518WAT     H1 1576   6.838   4.225   4.482
  518WAT     H2 1577   6.806   4.084   4.437
  519WAT      O 1578   6.093   4.421   3.942
  519WAT     H1 1579   6.052   4.350   3.893
  519WAT     H2 1580   6.101   4.386   4.031
  520WAT      O 1581   6.139   4.789   4.159
  520WAT     H1 1582   6.110   4.729   4.091
  520WAT     H2 1583   6.234   4.793   4.148
  521WAT      O 1584   5.964   4.098   4.320
  521WAT     H1 1585   6.019   4.109   4.243
  521WAT     H2 1586   6.015   4.136   4.392
  522WAT      O 1587   6.948   5.147   4.525
  522WAT     H1 1588   6.901   5.228   4.506
  522WAT     H2 1589   6.880   5.082   4.540
  523WAT      O 1590   6.049   4.763   4.824
  523WAT     H1 1591   5.959   4.786   4.849
  523WAT     H2 1592   6.051   4.776   4.729
  524WAT      O 1593   6.753   4.448   3.415
  524WAT     H1 1594   6.797   4.364   3.401
  524WAT     H2 1595   6.824   4.512   3.424
  525WAT      O 1596   5.931   4.450   4.681
  525WAT     H1 1597   5.917   4.538   4.718
  525WAT     H2 1598   5.843   4.416   4.667
  526WAT      O 1599   6.564   4.942   3.812
  526WAT     H1 1600   6.608   5.016   3.771
  526WAT     H2 1601   6.557   4.966   3.904
  527WAT      O 1602   6.111   5.045   4.902
  527WAT     H1 1603   6.108   5.085   4.816
  527WAT     H2 1604   6.095   4.952   4.886
  528WAT      O 1605   5.763   4.310   3.692
  528WAT     H1 1606   5.751   4.383   3.631
  528WAT     H2 1607   5.732   4.233   3.645
  529WAT      O 1608   5.526   4.627   4.273
  529WAT     H1 1609   5.534   4.641   4.179
  529WAT     H2 1610   5.588   4.557   4.292
  530WAT      O 1611   5.651   4.797   3.914
  530WAT     H1 1612   5.610   4.812   3.829
  530WAT     H2 1613   5.740   4.769   3.894
  531WAT      O 1614   6.633   5.212   4.605
  531WAT     H1 1615   6.684   5.203   4.685
  531WAT     H2 1616   6.548   5.247   4.634
  532WAT      O 1617   6.830   5.241   3.548
  532WAT     H1 1618   6.814   5.212   3.638
  532WAT     H2 1619   6.814   5.163   3.494
  533WAT      O 1620   6.078   5.219   3.725
  533WAT     H1 1621   6.061   5.127   3.704
  533WAT     H2 1622   5.993   5.255   3.749
  534WAT      O 1623   6.801   4.992   3.404
  534WAT     H1 1624   6.731   4.992   3.338
  534WAT     H2 1625   6.875   4.949   3.361
  535WAT      O 1626   6.757   5.154   3.811
  535WAT     H1 1627   6.803   5.076   3.843
  535WAT     H2 1628   6.791   5.225   3.866
  536WAT      O 1629   5.532   4.732   4.527
  536WAT     H1 1630   5.548   4.685   4.445
  536WAT     H2 1631   5.579   4.681   4.594
  537WAT      O 1632   6.009   3.645   4.031
  537WAT     H1 1633   5.965   3.723   3.998
  537WAT     H2 1634   6.065   3.677   4.101
  538WAT      O 1635   6.438   3.931   4.591
  538WAT     H1 1636   6.392   3.952   4.672
  538WAT     H2 1637   6.398   3.850   4.561
  539WAT      O 1638   6.938   4.053   4.704
  539WAT     H1 1639   6.853   4.023   4.736
  539WAT     H2 1640   6.922   4.078   4.613
  540WAT      O 1641   6.648   4.203   4.914
  540WAT     H1 1642   6.680   4.120   4.880
  540WAT     H2 1643   6.726   4.256   4.929
  541WAT      O 1644   6.321   3.607   3.519
  541WAT     H1 1645   6.258   3.606   3.591
  541WAT     H2 1646   6.312   3.520   3.479
  542WAT      O 1647   6.213   3.699   4.217
  542WAT     H1 1648   6.243   3.790   4.209
  542WAT     H2 1649   6.268   3.650   4.155
  543WAT      O 1650   5.988   4.157   3.804
  543WAT     H1 1651   5.966   4.135   3.894
  543WAT     H2 1652   5.910   4.200   3.769
  544WAT      O 1653   6.711   4.158   3.663
  544WAT     H1 1654   6.651   4.230   3.645
  544WAT     H2 1655   6.766   4.151   3.585
  545WAT      O 1656   6.232   4.247   4.870
  545WAT     H1 1657   6.223   4.153   4.855
  545WAT     H2 1658   6.317   4.269   4.831
  546WAT      O 1659   6.572   4.021   3.866
  546WAT     H1 1660   6.611   4.053   3.785
  546WAT     H2 1661   6.608   3.933   3.878
  547WAT      O 1662   5.746   3.888   4.685
  547WAT     H1 1663   5.706   3.973   4.706
  547WAT     H2 1664   5.677   3.824   4.705
  548WAT      O 1665   6.403   3.896   4.992
  548WAT     H1 1666   6.334   3.877   5.056
  548WAT     H2 1667   6.477   3.925   5.046
  549WAT      O 1668   5.476   3.680   4.089
  549WAT     H1 1669   5.447   3.737   4.160
  549WAT     H2 1670   5.550   3.632   4.125
  550WAT      O 1671   5.494   4.074   3.210
  550WAT     H1 1672   5.486   4.169   3.224
  550WAT     H2 1673   5.459   4.060   3.122
  551WAT      O 1674   6.631   4.280   4.276
  551WAT     H1 1675   6.557   4.331   4.311
  551WAT     H2 1676   6.591   4.199   4.246
  552WAT      O 1677   6.274   3.948   4.116
  552WAT     H1 1678   6.275   3.904   4.032
  552WAT     H2 1679   6.364   3.980   4.127
  553WAT      O 1680   5.859   3.936   4.012
  553WAT     H1 1681   5.825   3.984   4.088
  553WAT     H2 1682   5.783   3.891   3.976
  554WAT      O 1683   6.281   4.048   3.416
  554WAT     H1 1684   6.293   4.044   3.510
  554WAT     H2 1685   6.242   4.134   3.400
  555WAT      O 1686   6.677   3.826   4.217
  555WAT     H1 1687   6.679   3.871   4.302
  555WAT     H2 1688   6.652   3.736   4.239
  556WAT      O 1689   6.182   4.279   3.355
  556WAT     H1 1690   6.125   4.234   3.293
  556WAT     H2 1691   6.253   4.315   3.302
  557WAT      O 1692   5.689   4.669   4.743
  557WAT     H1 1693   5.651   4.605   4.803
  557WAT     H2 1694   5.721   4.739   4.800
  558WAT      O 1695   6.304   4.354   4.291
  558WAT     H1 1696   6.341   4.306   4.366
  558WAT     H2 1697   6.285   4.441   4.325
  559WAT      O 1698   5.591   3.828   3.904
  559WAT     H1 1699   5.562   3.792   3.988
  559WAT     H2 1700   5.585   3.755   3.843
  560WAT      O 1701   6.083   4.258   4.523
  560WAT     H1 1702   6.053   4.346   4.545
  560WAT     H2 1703   6.179   4.264   4.527
  561WAT      O 1704   5.936   4.679   3.583
  561WAT     H1 1705   5.859   4.625   3.567
  561WAT     H2 1706   6.009   4.627   3.549
  562WAT      O 1707   6.558   3.718   3.576
  562WAT     H1 1708   6.477   3.668   3.569
  562WAT     H2 1709   6.539   3.802   3.535
  563WAT      O 1710   6.550   4.585   4.751
  563WAT     H1 1711   6.544   4.493   4.725
  563WAT     H2 1712   6.487   4.595   4.822
  564WAT      O 1713   6.830   4.155   3.406
  564WAT     H1 1714   6.919   4.186   3.388
  564WAT     H2 1715   6.827   4.067   3.367
  565WAT      O 1716   5.941   4.645   3.946
  565WAT     H1 1717   5.992   4.565   3.941
  565WAT     H2 1718   5.895   4.639   4.031
  566WAT      O 1719   6.429   4.772   3.474
  566WAT     H1 1720   6.463   4.846   3.424
  566WAT     H2 1721   6.346   4.803   3.510
  567WAT      O 1722   5.689   4.342   4.638
  567WAT     H1 1723   5.653   4.408   4.696
  567WAT     H2 1724   5.660   4.259   4.675
  568WAT      O 1725   6.009   4.388   4.926
  568WAT     H1 1726   5.979   4.402   4.836
  568WAT     H2 1727   6.086   4.332   4.917
  569WAT      O 1728   6.543   4.867   4.726
  569WAT     H1 1729   6.545   4.774   4.704
  569WAT     H2 1730   6.473   4.876   4.790
  570WAT      O 1731   6.718   4.704   4.010
  570WAT     H1 1732   6.753   4.644   3.944
  570WAT     H2 1733   6.629   4.672   4.027
  571WAT      O 1734   6.326   4.780   3.751
  571WAT     H1 1735   6.395   4.835   3.789
  571WAT     H2 1736   6.248   4.835   3.754
  572WAT      O 1737   5.540   4.342   3.300
  572WAT     H1 1738   5.627   4.370   3.328
  572WAT     H2 1739   5.491   4.423   3.289
  573WAT      O 1740   6.256   4.481   3.712
  573WAT     H1 1741   6.302   4.562   3.735
  573WAT     H2 1742   6.221   4.449   3.795
  574WAT      O 1743   6.487   5.032   4.435
  574WAT     H1 1744   6.551   5.052   4.503
  574WAT     H2 1745   6.523   4.956   4.390
  575WAT      O 1746   5.847   3.515   3.759
  575WAT     H1 1747   5.834   3.514   3.854
  575WAT     H2 1748   5.764   3.549   3.724
  576WAT      O 1749   6.614   4.832   4.307
  576WAT     H1 1750   6.678   4.762   4.318
  576WAT     H2 1751   6.667   4.910   4.289
  577WAT      O 1752   6.792   4.912   4.627
  577WAT     H1 1753   6.825   4.971   4.695
  577WAT     H2 1754   6.700   4.899   4.650
  578WAT      O 1755   5.577   5.263   3.357
  578WAT     H1 1756   5.613   5.323   3.291
  578WAT     H2 1757   5.563   5.318   3.434
  579WAT      O 1758   5.547   3.691   4.705
  579WAT     H1 1759   5.475   3.711   4.766
  579WAT     H2 1760   5.589   3.613   4.743
  580WAT      O 1761   5.575   5.090   4.804
  580WAT     H1 1762   5.586   4.996   4.790
  580WAT     H2 1763   5.510   5.116   4.739
  581WAT      O 1764   6.374   4.917   4.944
  581WAT     H1 1765   6.342   4.845   4.999
  581WAT     H2 1766   6.307   4.984   4.951
  582WAT      O 1767   6.179   5.001   3.438
  582WAT     H1 1768   6.178   5.075   3.377
  582WAT     H2 1769   6.087   4.977   3.448
  583WAT      O 1770   5.739   4.524   3.513
  583WAT     H1 1771   5.678   4.598   3.514
  583WAT     H2 1772   5.786   4.533   3.430
  584WAT      O 1773   6.696   3.940   4.480
  584WAT     H1 1774   6.733   3.858   4.513
  584WAT     H2 1775   6.610   3.946   4.522
  585WAT      O 1776   6.477   5.008   3.305
  585WAT     H1 1777   6.487   4.987   3.212
  585WAT     H2 1778   6.387   4.982   3.325
  586WAT      O 1779   6.229   4.064   3.703
  586WAT     H1 1780   6.159   4.110   3.747
  586WAT     H2 1781   6.258   3.998   3.766
  587WAT      O 1782   6.392   4.205   4.503
  587WAT     H1 1783   6.442   4.253   4.569
  587WAT     H2 1784   6.406   4.113   4.524
  588WAT      O 1785   6.633   3.736   3.847
  588WAT     H1 1786   6.620   3.738   3.752
  588WAT     H2 1787   6.727   3.741   3.859
  589WAT      O 1788   6.341   5.260   3.774
  589WAT     H1 1789   6.367   5.256   3.682
  589WAT     H2 1790   6.246   5.247   3.773
  590WAT      O 1791   6.050   3.894   3.440
  590WAT     H1 1792   6.135   3.938   3.434
  590WAT     H2 1793   6.013   3.926   3.523
  591WAT      O 1794   6.942   4.352   3.932
  591WAT     H1 1795   6.848   4.353   3.949
  591WAT     H2 1796   6.973   4.273   3.976
  592WAT      O 1797   5.940   4.520   3.288
  592WAT     H1 1798   6.016   4.509   3.344
  592WAT     H2 1799   5.947   4.450   3.223
  593WAT      O 1800   5.809   4.263   3.356
  593WAT     H1 1801   5.817   4.168   3.367
  593WAT     H2 1802   5.898   4.296   3.367
  594WAT      O 1803   5.889   5.278   4.066
  594WAT     H1 1804   5.963   5.223   4.093
  594WAT     H2 1805   5.928   5.364   4.052
  595WAT      O 1806   5.578   4.885   3.654
  595WAT     H1 1807   5.485   4.909   3.653
  595WAT     H2 1808   5.624   4.967   3.642
  596WAT      O 1809   5.790   5.196   4.985
  596WAT     H1 1810   5.870   5.228   5.027
  596WAT     H2 1811   5.738   5.160   5.057
  597WAT      O 1812   6.200   5.195   3.249
  597WAT     H1 1813   6.280   5.224   3.203
  597WAT     H2 1814   6.148   5.152   3.181
  598WAT      O 1815   6.674   4.807   4.980
  598WAT     H1 1816   6.613   4.809   4.906
  598WAT     H2 1817   6.643   4.734   5.034
  599WAT      O 1818   6.817   5.180   4.841
  599WAT     H1 1819   6.912   5.172   4.836
  599WAT     H2 1820   6.802   5.246   4.908
  600WAT      O 1821   5.562   4.445   4.880
  600WAT     H1 1822   5.612   4.387   4.937
  600WAT     H2 1823   5.488   4.474   4.933
  601WAT      O 1824   6.252   4.717   3.235
  601WAT     H1 1825   6.242   4.656   3.308
  601WAT     H2 1826   6.235   4.665   3.157
  602WAT      O 1827   6.267   4.586   4.833
  602WAT     H1 1828   6.191   4.643   4.825
  602WAT     H2 1829   6.285   4.557   4.744
  603WAT      O 1830   6.576   4.623   3.296
  603WAT     H1 1831   6.521   4.668   3.360
  603WAT     H2 1832   6.638   4.573   3.348
  604WAT      O 1833   5.765   4.259   4.969
  604WAT     H1 1834   5.769   4.230   5.060
  604WAT     H2 1835   5.851   4.299   4.953
  605WAT      O 1836   6.143   4.519   3.485
  605WAT     H1 1837   6.185   4.503   3.569
  605WAT     H2 1838   6.155   4.438   3.436
  606WAT      O 1839   5.959   4.117   4.766
  606WAT     H1 1840   5.906   4.068   4.703
  606WAT     H2 1841   6.026   4.160   4.712
  607WAT      O 1842   6.394   4.422   3.210
  607WAT     H1 1843   6.446   4.350   3.173
  607WAT     H2 1844   6.459   4.486   3.240
  608WAT      O 1845   6.849   4.564   4.742
  608WAT     H1 1846   6.890   4.579   4.827
  608WAT     H2 1847   6.755   4.577   4.759
  609WAT      O 1848   6.896   4.298   4.943
  609WAT     H1 1849   6.954   4.222   4.934
  609WAT     H2 1850   6.914   4.351   4.865
  610WAT      O 1851   6.008   3.814   4.774
  610WAT     H1 1852   5.998   3.752   4.701
  610WAT     H2 1853   5.950   3.887   4.751
  611WAT      O 1854   6.284   3.670   4.477
  611WAT     H1 1855   6.240   3.672   4.393
  611WAT     H2 1856   6.221   3.630   4.537
  612WAT      O 1857   6.325   4.559   4.539
  612WAT     H1 1858   6.367   4.644   4.522
  612WAT     H2 1859   6.233   4.573   4.516
  613WAT      O 1860   6.559   4.332   4.678
  613WAT     H1 1861   6.571   4.273   4.752
  613WAT     H2 1862   6.645   4.336   4.636
  614WAT      O 1863   6.793   4.388   4.535
  614WAT     H1 1864   6.740   4.440   4.475
  614WAT     H2 1865   6.827   4.451   4.598
  615WAT      O 1866   6.032   4.127   3.180
  615WAT     H1 1867   6.012   4.040   3.216
  615WAT     H2 1868   6.015   4.118   3.086
  616WAT      O 1869   6.110   5.190   4.651
  616WAT     H1 1870   6.056   5.262   4.619
  616WAT     H2 1871   6.135   5.142   4.572
  617WAT      O 1872   6.235   3.987   4.803
  617WAT     H1 1873   6.294   3.956   4.872
  617WAT     H2 1874   6.154   3.939   4.819
  618WAT      O 1875   6.717   3.948   4.827
  618WAT     H1 1876   6.648   3.882   4.820
  618WAT     H2 1877   6.789   3.904   4.871
  619WAT      O 1878   6.780   3.608   3.433
  619WAT     H1 1879   6.808   3.523   3.468
  619WAT     H2 1880   6.703   3.631   3.484
  620WAT      O 1881   5.912   3.837   3.179
  620WAT     H1 1882   5.943   3.837   3.088
  620WAT     H2 1883   5.986   3.802   3.228
  621WAT      O 1884   6.396   5.313   4.677
  621WAT     H1 1885   6.388   5.404   4.707
  621WAT     H2 1886   6.306   5.281   4.674
  622WAT      O 1887   6.234   3.731   3.277
  622WAT     H1 1888   6.199   3.663   3.219
  622WAT     H2 1889   6.254   3.685   3.359
  623WAT      O 1890   6.451   5.230   3.439
  623WAT     H1 1891   6.540   5.264   3.441
  623WAT     H2 1892   6.454   5.158   3.376
  624WAT      O 1893   5.815   4.767   3.262
  624WAT     H1 1894   5.858   4.821   3.327
  624WAT     H2 1895   5.863   4.685   3.263
  625WAT      O 1896   5.536   5.046   4.007
  625WAT     H1 1897   5.569   4.959   3.984
  625WAT     H2 1898   5.579   5.067   4.090
  626WAT      O 1899   5.996   4.879   3.773
  626WAT     H1 1900   5.966   4.867   3.863
  626WAT     H2 1901   5.985   4.793   3.732
  627WAT      O 1902   5.585   5.133   4.281
  627WAT     H1 1903   5.541   5.151   4.364
  627WAT     H2 1904   5.642   5.208   4.267
  628WAT      O 1905   5.568   4.384   3.917
  628WAT     H1 1906   5.503   4.357   3.852
  628WAT     H2 1907   5.652   4.373   3.872
  629WAT      O 1908   6.863   3.863   3.339
  629WAT     H1 1909   6.905   3.845   3.255
  629WAT     H2 1910   6.832   3.778   3.370
  630WAT      O 1911   5.672   4.422   4.371
  630WAT     H1 1912   5.709   4.414   4.459
  630WAT     H2 1913   5.615   4.346   4.361
  631WAT      O 1914   5.627   4.114   4.761
  631WAT     H1 1915   5.538   4.110   4.795
  631WAT     H2 1916   5.681   4.133   4.838
  632WAT      O 1917   5.490   4.105   3.511
  632WAT     H1 1918   5.399   4.131   3.494
  632WAT     H2 1919   5.538   4.132   3.433
  633WAT      O 1920   5.744   4.011   3.302
  633WAT     H1 1921   5.815   3.968   3.253
  633WAT     H2 1922   5.672   4.017   3.239
  634WAT      O 1923   5.709   3.616   3.206
  634WAT     H1 1924   5.781   3.670   3.238
  634WAT     H2 1925   5.736   3.589   3.118
  635WAT      O 1926   5.677   3.541   4.196
  635WAT     H1 1927   5.742   3.486   4.152
  635WAT     H2 1928   5.720   3.566   4.278
  636WAT      O 1929   5.653   3.557   4.470
  636WAT     H1 1930   5.618   3.602   4.547
  636WAT     H2 1931   5.620   3.467   4.479
  637WAT      O 1932   5.813   4.874   4.887
  637WAT     H1 1933   5.809   4.837   4.975
  637WAT     H2 1934   5.827   4.968   4.901
  638WAT      O 1935   6.184   5.029   4.447
  638WAT     H1 1936   6.159   5.056   4.358
  638WAT     H2 1937   6.278   5.046   4.453
  639WAT      O 1938   6.404   3.676   4.823
  639WAT     H1 1939   6.398   3.735   4.898
  639WAT     H2 1940   6.498   3.665   4.808
  640WAT      O 1941   6.668   3.641   4.787
  640WAT     H1 1942   6.729   3.673   4.720
  640WAT     H2 1943   6.722   3.593   4.849
  641WAT      O 1944   5.720   3.509   4.798
  641WAT     H1 1945   5.775   3.491   4.722
  641WAT     H2 1946   5.727   3.430   4.852
  642WAT      O 1947   5.797   5.168   4.599
  642WAT     H1 1948   5.738   5.155   4.673
  642WAT     H2 1949   5.797   5.085   4.552
  643WAT      O 1950   6.742   3.498   4.419
  643WAT     H1 1951   6.654   3.531   4.399
  643WAT     H2 1952   6.731   3.450   4.502
  644WAT      O 1953   6.833   3.718   4.558
  644WAT     H1 1954   6.800   3.637   4.520
  644WAT     H2 1955   6.927   3.714   4.545
  645WAT      O 1956   5.760   4.905   4.494
  645WAT     H1 1957   5.688   4.843   4.487
  645WAT     H2 1958   5.767   4.944   4.407
  646WAT      O 1959   6.121   5.126   4.173
  646WAT     H1 1960   6.173   5.065   4.120
  646WAT     H2 1961   6.186   5.177   4.222
  647WAT      O 1962   6.395   5.216   4.255
  647WAT     H1 1963   6.424   5.190   4.168
  647WAT     H2 1964   6.446   5.160   4.314
  648WAT      O 1965   6.517   3.589   4.313
  648WAT     H1 1966   6.438   3.637   4.341
  648WAT     H2 1967   6.487   3.499   4.302
  649WAT      O 1968   5.589   5.237   3.815
  649WAT     H1 1969   5.572   5.173   3.885
  649WAT     H2 1970   5.502   5.257   3.780
  650WAT      O 1971   5.651   3.620   3.565
  650WAT     H1 1972   5.727   3.631   3.508
  650WAT     H2 1973   5.605   3.704   3.561
  651WAT      O 1974   6.305   3.831   3.864
  651WAT     H1 1975   6.224   3.794   3.830
  651WAT     H2 1976   6.356   3.756   3.895
  652WAT      O 1977   6.755   3.498   3.988
  652WAT     H1 1978   6.816   3.555   4.036
  652WAT     H2 1979   6.681   3.554   3.966
  653WAT      O 1980   5.749   5.106   3.559
  653WAT     H1 1981   5.697   5.144   3.489
  653WAT     H2 1982   5.742   5.169   3.632
  654WAT      O 1983   5.888   3.673   3.419
  654WAT     H1 1984   5.941   3.594   3.406
  654WAT     H2 1985   5.952   3.740   3.443
  655WAT      O 1986   6.108   3.646   3.725
  655WAT     H1 1987   6.045   3.576   3.741
  655WAT     H2 1988   6.054   3.722   3.703
  656WAT      O 1989   6.402   5.308   4.992
  656WAT     H1 1990   6.494   5.284   4.996
  656WAT     H2 1991   6.400   5.390   4.944
  657WAT      O 1992   6.120   3.574   4.968
  657WAT     H1 1993   6.092   3.624   4.892
  657WAT     H2 1994   6.158   3.494   4.932
  658WAT      O 1995   6.009   5.301   3.447
  658WAT     H1 1996   6.083   5.272   3.392
  658WAT     H2 1997   6.035   5.277   3.536
  659WAT      O 1998   5.925   4.913   3.447
  659WAT     H1 1999   5.863   4.959   3.502
  659WAT     H2 2000   5.937   4.828   3.491
  660WAT      O 2001   6.780   3.516   5.026
  660WAT     H1 2002   6.769   3.548   5.116
  660WAT     H2 2003   6.862   3.556   4.996
  661WAT      O 2004   6.671   4.318   2.062
  661WAT     H1 2005   6.663   4.226   2.035
  661WAT     H2 2006   6.630   4.367   1.992
  662WAT      O 2007   6.484   4.495   2.251
  662WAT     H1 2008   6.407   4.447   2.280
  662WAT     H2 2009   6.549   4.427   2.233
  663WAT      O 2010   5.886   4.527   2.338
  663WAT     H1 2011   5.803   4.501   2.378
  663WAT     H2 2012   5.947   4.534   2.412
  664WAT      O 2013   6.886   4.936   2.129
  664WAT     H1 2014   6.840   4.859   2.161
  664WAT     H2 2015   6.967   4.939   2.179
  665WAT      O 2016   5.884   4.930   2.358
  665WAT     H1 2017   5.914   4.841   2.340
  665WAT     H2 2018   5.958   4.986   2.335
  666WAT      O 2019   5.727   4.023   1.717
  666WAT     H1 2020   5.638   4.057   1.707
  666WAT     H2 2021   5.755   4.003   1.628
  667WAT      O 2022   5.523   4.283   2.305
  667WAT     H1 2023   5.580   4.206   2.305
  667WAT     H2 2024   5.523   4.313   2.214
  668WAT      O 2025   6.509   5.165   2.091
  668WAT     H1 2026   6.447   5.210   2.034
  668WAT     H2 2027   6.594   5.180   2.050
  669WAT      O 2028   6.428   4.763   2.251
  669WAT     H1 2029   6.421   4.669   2.235
  669WAT     H2 2030   6.504   4.772   2.308
  670WAT      O 2031   5.647   3.823   2.484
  670WAT     H1 2032   5.629   3.734   2.512
  670WAT     H2 2033   5.607   3.878   2.551
  671WAT      O 2034   6.531   4.044   2.274
  671WAT     H1 2035   6.569   3.956   2.263
  671WAT     H2 2036   6.521   4.077   2.185
  672WAT      O 2037   5.944   3.881   1.820
  672WAT     H1 2038   5.955   3.971   1.851
  672WAT     H2 2039   5.853   3.876   1.791
  673WAT      O 2040   5.709   4.073   2.345
  673WAT     H1 2041   5.777   4.099   2.407
  673WAT     H2 2042   5.678   3.989   2.378
  674WAT      O 2043   6.128   4.178   2.253
  674WAT     H1 2044   6.179   4.228   2.317
  674WAT     H2 2045   6.182   4.100   2.236
  675WAT      O 2046   5.957   3.642   2.680
  675WAT     H1 2047   5.957   3.693   2.599
  675WAT     H2 2048   5.874   3.594   2.678
  676WAT      O 2049   6.595   4.653   1.830
  676WAT     H1 2050   6.534   4.699   1.774
  676WAT     H2 2051   6.647   4.722   1.872
  677WAT      O 2052   6.082   4.606   2.498
  677WAT     H1 2053   6.048   4.668   2.562
  677WAT     H2 2054   6.099   4.658   2.420
  678WAT      O 2055   6.933   3.987   2.245
  678WAT     H1 2056   6.863   4.016   2.303
  678WAT     H2 2057   6.969   4.068   2.208
  679WAT      O 2058   5.925   3.813   2.481
  679WAT     H1 2059   5.959   3.897   2.451
  679WAT     H2 2060   5.831   3.828   2.492
  680WAT      O 2061   6.003   4.803   2.679
  680WAT     H1 2062   6.065   4.870   2.651
  680WAT     H2 2063   5.917   4.843   2.670
  681WAT      O 2064   5.532   4.722   1.567
  681WAT     H1 2065   5.495   4.770   1.494
  681WAT     H2 2066   5.558   4.789   1.630
  682WAT      O 2067   6.293   3.562   2.113
  682WAT     H1 2068   6.324   3.506   2.042
  682WAT     H2 2069   6.200   3.575   2.095
  683WAT      O 2070   6.848   5.133   2.342
  683WAT     H1 2071   6.850   5.093   2.255
  683WAT     H2 2072   6.793   5.211   2.332
  684WAT      O 2073   6.978   4.806   1.851
  684WAT     H1 2074   6.967   4.711   1.864
  684WAT     H2 2075   6.977   4.842   1.940
  685WAT      O 2076   6.788   4.624   2.475
  685WAT     H1 2077   6.830   4.602   2.392
  685WAT     H2 2078   6.861   4.649   2.532
  686WAT      O 2079   6.532   4.368   1.787
  686WAT     H1 2080   6.439   4.362   1.810
  686WAT     H2 2081   6.547   4.462   1.775
  687WAT      O 2082   6.531   3.995   1.486
  687WAT     H1 2083   6.437   4.011   1.495
  687WAT     H2 2084   6.563   4.067   1.432
  688WAT      O 2085   6.935   4.524   1.837
  688WAT     H1 2086   6.873   4.491   1.772
  688WAT     H2 2087   6.933   4.460   1.908
  689WAT      O 2088   6.879   4.142   2.579
  689WAT     H1 2089   6.838   4.225   2.604
  689WAT     H2 2090   6.806   4.084   2.560
  690WAT      O 2091   6.093   4.421   2.065
  690WAT     H1 2092   6.052   4.350   2.015
  690WAT     H2 2093   6.101   4.386   2.154
  691WAT      O 2094   6.139   4.789   2.281
  691WAT     H1 2095   6.110   4.729   2.213
  691WAT     H2 2096   6.234   4.793   2.270
  692WAT      O 2097   5.964   4.098   2.443
  692WAT     H1 2098   6.019   4.109   2.365
  692WAT     H2 2099   6.015   4.136   2.514
  693WAT      O 2100   6.948   5.147   2.648
  693WAT     H1 2101   6.901   5.228   2.628
  693WAT     H2 2102   6.880   5.082   2.663
  694WAT      O 2103   6.049   4.763   2.946
  694WAT     H1 2104   5.959   4.786   2.971
  694WAT     H2 2105   6.051   4.776   2.852
  695WAT      O 2106   6.753   4.448   1.538
  695WAT     H1 2107   6.797   4.364   1.523
  695WAT     H2 2108   6.824   4.512   1.546
  696WAT      O 2109   5.931   4.450   2.804
  696WAT     H1 2110   5.917   4.538   2.841
  696WAT     H2 2111   5.843   4.416   2.789
  697WAT      O 2112   6.564   4.942   1.935
  697WAT     H1 2113   6.608   5.016   1.893
  697WAT     H2 2114   6.557   4.966   2.027
  698WAT      O 2115   6.111   5.045   3.025
  698WAT     H1 2116   6.108   5.085   2.938
  698WAT     H2 2117   6.095   4.952   3.009
  699WAT      O 2118   5.763   4.310   1.815
  699WAT     H1 2119   5.751   4.383   1.754
  699WAT     H2 2120   5.732   4.233   1.767
  700WAT      O 2121   5.526   4.627   2.396
  700WAT     H1 2122   5.534   4.641   2.301
  700WAT     H2 2123   5.588   4.557   2.415
  701WAT      O 2124   5.651   4.797   2.037
  701WAT     H1 2125   5.610   4.812   1.951
  701WAT     H2 2126   5.740   4.769   2.016
  702WAT      O 2127   6.633   5.212   2.727
  702WAT     H1 2128   6.684   5.203   2.808
  702WAT     H2 2129   6.548   5.247   2.757
  703WAT      O 2130   6.830   5.241   1.670
  703WAT     H1 2131   6.814   5.212   1.760
  703WAT     H2 2132   6.814   5.163   1.617
  704WAT      O 2133   6.078   5.219   1.848
  704WAT     H1 2134   6.061   5.127   1.827
  704WAT     H2 2135   5.993   5.255   1.872
  705WAT      O 2136   6.801   4.992   1.526
  705WAT     H1 2137   6.731   4.992   1.460
  705WAT     H2 2138   6.875   4.949   1.483
  706WAT      O 2139   6.757   5.154   1.934
  706WAT     H1 2140   6.803   5.076   1.965
  706WAT     H2 2141   6.791   5.225   1.988
  707WAT      O 2142   5.532   4.732   2.650
  707WAT     H1 2143   5.548   4.685   2.568
  707WAT     H2 2144   5.579   4.681   2.716
  708WAT      O 2145   6.009   3.645   2.153
  708WAT     H1 2146   5.965   3.723   2.120
  708WAT     H2 2147   6.065   3.677   2.224
  709WAT      O 2148   6.438   3.931   2.714
  709WAT     H1 2149   6.392   3.952   2.795
  709WAT     H2 2150   6.398   3.850   2.683
  710WAT      O 2151   6.938   4.053   2.827
  710WAT     H1 2152   6.853   4.023   2.859
  710WAT     H2 2153   6.922   4.078   2.735
  711WAT      O 2154   6.648   4.203   3.037
  711WAT     H1 2155   6.680   4.120   3.003
  711WAT     H2 2156   6.726   4.256   3.051
  712WAT      O 2157   6.321   3.607   1.641
  712WAT     H1 2158   6.258   3.606   1.714
  712WAT     H2 2159   6.312   3.520   1.602
  713WAT      O 2160   6.213   3.699   2.339
  713WAT     H1 2161   6.243   3.790   2.331
  713WAT     H2 2162   6.268   3.650   2.278
  714WAT      O 2163   5.988   4.157   1.926
  714WAT     H1 2164   5.966   4.135   2.017
  714WAT     H2 2165   5.910   4.200   1.892
  715WAT      O 2166   6.711   4.158   1.786
  715WAT     H1 2167   6.651   4.230   1.768
  715WAT     H2 2168   6.766   4.151   1.708
  716WAT      O 2169   6.232   4.247   2.993
  716WAT     H1 2170   6.223   4.153   2.978
  716WAT     H2 2171   6.317   4.269   2.953
  717WAT      O 2172   6.572   4.021   1.989
  717WAT     H1 2173   6.611   4.053   1.908
  717WAT     H2 2174   6.608   3.933   2.000
  718WAT      O 2175   5.746   3.888   2.808
  718WAT     H1 2176   5.706   3.973   2.829
  718WAT     H2 2177   5.677   3.824   2.827
  719WAT      O 2178   6.403   3.896   3.115
  719WAT     H1 2179   6.334   3.877   3.178
  719WAT     H2 2180   6.477   3.925   3.168
  720WAT      O 2181   5.476   3.680   2.211
  720WAT     H1 2182   5.447   3.737   2.283
  720WAT     H2 2183   5.550   3.632   2.248
  721WAT      O 2184   5.494   4.074   1.332
  721WAT     H1 2185   5.486   4.169   1.346
  721WAT     H2 2186   5.459   4.060   1.244
  722WAT      O 2187   6.631   4.280   2.399
  722WAT     H1 2188   6.557   4.331   2.433
  722WAT     H2 2189   6.591   4.199   2.368
  723WAT      O 2190   6.274   3.948   2.239
  723WAT     H1 2191   6.275   3.904   2.154
  723WAT     H2 2192   6.364   3.980   2.250
  724WAT      O 2193   5.859   3.936   2.135
  724WAT     H1 2194   5.825   3.984   2.211
  724WAT     H2 2195   5.783   3.891   2.099
  725WAT      O 2196   6.281   4.048   1.538
  725WAT     H1 2197   6.293   4.044   1.633
  725WAT     H2 2198   6.242   4.134   1.523
  726WAT      O 2199   6.677   3.826   2.340
  726WAT     H1 2200   6.679   3.871   2.424
  726WAT     H2 2201   6.652   3.736   2.361
  727WAT      O 2202   6.182   4.279   1.478
  727WAT     H1 2203   6.125   4.234   1.415
  727WAT     H2 2204   6.253   4.315   1.425
  728WAT      O 2205   5.689   4.669   2.866
  728WAT     H1 2206   5.651   4.605   2.925
  728WAT     H2 2207   5.721   4.739   2.923
  729WAT      O 2208   6.304   4.354   2.414
  729WAT     H1 2209   6.341   4.306   2.488
  729WAT     H2 2210   6.285   4.441   2.448
  730WAT      O 2211   5.591   3.828   2.027
  730WAT     H1 2212   5.562   3.792   2.110
  730WAT     H2 2213   5.585   3.755   1.965
  731WAT      O 2214   6.083   4.258   2.646
  731WAT     H1 2215   6.053   4.346   2.668
  731WAT     H2 2216   6.179   4.264   2.649
  732WAT      O 2217   5.936   4.679   1.705
  732WAT     H1 2218   5.859   4.625   1.689
  732WAT     H2 2219   6.009   4.627   1.671
  733WAT      O 2220   6.558   3.718   1.699
  733WAT     H1 2221   6.477   3.668   1.691
  733WAT     H2 2222   6.539   3.802   1.657
  734WAT      O 2223   6.550   4.585   2.873
  734WAT     H1 2224   6.544   4.493   2.848
  734WAT     H2 2225   6.487   4.595   2.945
  735WAT      O 2226   6.830   4.155   1.528
  735WAT     H1 2227   6.919   4.186   1.511
  735WAT     H2 2228   6.827   4.067   1.489
  736WAT      O 2229   5.941   4.645   2.069
  736WAT     H1 2230   5.992   4.565   2.064
  736WAT     H2 2231   5.895   4.639   2.153
  737WAT      O 2232   6.429   4.772   1.596
  737WAT     H1 2233   6.463   4.846   1.547
  737WAT     H2 2234   6.346   4.803   1.633
  738WAT      O 2235   5.689   4.342   2.760
  738WAT     H1 2236   5.653   4.408   2.819
  738WAT     H2 2237   5.660   4.259   2.797
  739WAT      O 2238   6.009   4.388   3.049
  739WAT     H1 2239   5.979   4.402   2.959
  739WAT     H2 2240   6.086   4.332   3.039
  740WAT      O 2241   6.543   4.867   2.848
  740WAT     H1 2242   6.545   4.774   2.826
  740WAT     H2 2243   6.473   4.876   2.912
  741WAT      O 2244   6.718   4.704   2.133
  741WAT     H1 2245   6.753   4.644   2.067
  741WAT     H2 2246   6.629   4.672   2.150
  742WAT      O 2247   6.326   4.780   1.873
  742WAT     H1 2248   6.395   4.835   1.912
  742WAT     H2 2249   6.248   4.835   1.877
  743WAT      O 2250   5.540   4.342   1.423
  743WAT     H1 2251   5.627   4.370   1.451
  743WAT     H2 2252   5.491   4.423   1.411
  744WAT      O 2253   6.256   4.481   1.835
  744WAT     H1 2254   6.302   4.562   1.857
  744WAT     H2 2255   6.221   4.449   1.918
  745WAT      O 2256   6.487   5.032   2.558
  745WAT     H1 2257   6.551   5.052   2.625
  745WAT     H2 2258   6.523   4.956   2.512
  746WAT      O 2259   5.847   3.515   1.882
  746WAT     H1 2260   5.834   3.514   1.977
  746WAT     H2 2261   5.764   3.549   1.847
  747WAT      O 2262   6.614   4.832   2.429
  747WAT     H1 2263   6.678   4.762   2.441
  747WAT     H2 2264   6.667   4.910   2.411
  748WAT      O 2265   6.792   4.912   2.750
  748WAT     H1 2266   6.825   4.971   2.818
  748WAT     H2 2267   6.700   4.899   2.773
  749WAT      O 2268   5.577   5.263   1.479
  749WAT     H1 2269   5.613   5.323   1.414
  749WAT     H2 2270   5.563   5.318   1.557
  750WAT      O 2271   5.547   3.691   2.828
  750WAT     H1 2272   5.475   3.711   2.888
  750WAT     H2 2273   5.589   3.613   2.865
  751WAT      O 2274   5.575   5.090   2.927
  751WAT     H1 2275   5.586   4.996   2.913
  751WAT     H2 2276   5.510   5.116   2.862
  752WAT      O 2277   6.374   4.917   3.067
  752WAT     H1 2278   6.342   4.845   3.121
  752WAT     H2 2279   6.307   4.984   3.074
  753WAT      O 2280   6.179   5.001   1.561
  753WAT     H1 2281   6.178   5.075   1.499
  753WAT     H2 2282   6.087   4.977   1.570
  754WAT      O 2283   5.739   4.524   1.635
  754WAT     H1 2284   5.678   4.598   1.636
  754WAT     H2 2285   5.786   4.533   1.553
  755WAT      O 2286   6.696   3.940   2.603
  755WAT     H1 2287   6.733   3.858   2.636
  755WAT     H2 2288   6.610   3.946   2.645
  756WAT      O 2289   6.477   5.008   1.427
  756WAT     H1 2290   6.487   4.987   1.334
  756WAT     H2 2291   6.387   4.982   1.448
  757WAT      O 2292   6.229   4.064   1.825
  757WAT     H1 2293   6.159   4.110   1.870
  757WAT     H2 2294   6.258   3.998   1.889
  758WAT      O 2295   6.392   4.205   2.625
  758WAT     H1 2296   6.442   4.253   2.692
  758WAT     H2 2297   6.406   4.113   2.646
  759WAT      O 2298   6.633   3.736   1.969
  759WAT     H1 2299   6.620   3.738   1.874
  759WAT     H2 2300   6.727   3.741   1.981
  760WAT      O 2301   6.341   5.260   1.897
  760WAT     H1 2302   6.367   5.256   1.804
  760WAT     H2 2303   6.246   5.247   1.896
  761WAT      O 2304   6.050   3.894   1.563
  761WAT     H1 2305   6.135   3.938   1.556
  761WAT     H2 2306   6.013   3.926   1.646
  762WAT      O 2307   6.942   4.352   2.054
  762WAT     H1 2308   6.848   4.353   2.072
  762WAT     H2 2309   6.973   4.273   2.099
  763WAT      O 2310   5.940   4.520   1.410
  763WAT     H1 2311   6.016   4.509   1.467
  763WAT     H2 2312   5.947   4.450   1.345
  764WAT      O 2313   5.809   4.263   1.479
  764WAT     H1 2314   5.817   4.168   1.490
  764WAT     H2 2315   5.898   4.296   1.489
  765WAT      O 2316   5.889   5.278   2.189
  765WAT     H1 2317   5.963   5.223   2.216
  765WAT     H2 2318   5.928   5.364   2.175
  766WAT      O 2319   5.578   4.885   1.776
  766WAT     H1 2320   5.485   4.909   1.775
  766WAT     H2 2321   5.624   4.967   1.764
  767WAT      O 2322   5.790   5.196   3.108
  767WAT     H1 2323   5.870   5.228   3.149
  767WAT     H2 2324   5.738   5.160   3.180
  768WAT      O 2325   6.200   5.195   1.371
  768WAT     H1 2326   6.280   5.224   1.326
  768WAT     H2 2327   6.148   5.152   1.303
  769WAT      O 2328   6.674   4.807   3.103
  769WAT     H1 2329   6.613   4.809   3.029
  769WAT     H2 2330   6.643   4.734   3.156
  770WAT      O 2331   6.817   5.180   2.964
  770WAT     H1 2332   6.912   5.172   2.959
  770WAT     H2 2333   6.802   5.246   3.031
  771WAT      O 2334   5.562   4.445   3.002
  771WAT     H1 2335   5.612   4.387   3.059
  771WAT     H2 2336   5.488   4.474   3.056
  772WAT      O 2337   6.252   4.717   1.358
  772WAT     H1 2338   6.242   4.656   1.430
  772WAT     H2 2339   6.235   4.665   1.279
  773WAT      O 2340   6.267   4.586   2.956
  773WAT     H1 2341   6.191   4.643   2.947
  773WAT     H2 2342   6.285   4.557   2.866
  774WAT      O 2343   6.576   4.623   1.418
  774WAT     H1 2344   6.521   4.668   1.483
  774WAT     H2 2345   6.638   4.573   1.470
  775WAT      O 2346   5.765   4.259   3.092
  775WAT     H1 2347   5.769   4.230   3.183
  775WAT     H2 2348   5.851   4.299   3.076
  776WAT      O 2349   6.143   4.519   1.608
  776WAT     H1 2350   6.185   4.503   1.692
  776WAT     H2 2351   6.155   4.438   1.558
  777WAT      O 2352   5.959   4.117   2.888
  777WAT     H1 2353   5.906   4.068   2.826
  777WAT     H2 2354   6.026   4.160   2.835
  778WAT      O 2355   6.394   4.422   1.333
  778WAT     H1 2356   6.446   4.350   1.296
  778WAT     H2 2357   6.459   4.486   1.363
  779WAT      O 2358   6.849   4.564   2.865
  779WAT     H1 2359   6.890   4.579   2.950
  779WAT     H2 2360   6.755   4.577   2.881
  780WAT      O 2361   6.896   4.298   3.065
  780WAT     H1 2362   6.954   4.222   3.056
  780WAT     H2 2363   6.914   4.351   2.988
  781WAT      O 2364   6.008   3.814   2.896
  781WAT     H1 2365   5.998   3.752   2.824
  781WAT     H2 2366   5.950   3.887   2.874
  782WAT      O 2367   6.284   3.670   2.600
  782WAT     H1 2368   6.240   3.672   2.515
  782WAT     H2 2369   6.221   3.630   2.659
  783WAT      O 2370   6.325   4.559   2.662
  783WAT     H1 2371   6.367   4.644   2.645
  783WAT     H2 2372   6.233   4.573   2.639
  784WAT      O 2373   6.559   4.332   2.800
  784WAT     H1 2374   6.571   4.273   2.874
  784WAT     H2 2375   6.645   4.336   2.758
  785WAT      O 2376   6.793   4.388   2.658
  785WAT     H1 2377   6.740   4.440   2.597
  785WAT     H2 2378   6.827   4.451   2.721
  786WAT      O 2379   6.032   4.127   1.302
  786WAT     H1 2380   6.012   4.040   1.338
  786WAT     H2 2381   6.015   4.118   1.209
  787WAT      O 2382   6.110   5.190   2.773
  787WAT     H1 2383   6.056   5.262   2.741
  787WAT     H2 2384   6.135   5.142   2.694
  788WAT      O 2385   6.235   3.987   2.926
  788WAT     H1 2386   6.294   3.956   2.995
  788WAT     H2 2387   6.154   3.939   2.942
  789WAT      O 2388   6.717   3.948   2.949
  789WAT     H1 2389   6.648   3.882   2.943
  789WAT     H2 2390   6.789   3.904   2.994
  790WAT      O 2391   6.780   3.608   1.555
  790WAT     H1 2392   6.808   3.523   1.591
  790WAT     H2 2393   6.703   3.631   1.607
  791WAT      O 2394   5.912   3.837   1.301
  791WAT     H1 2395   5.943   3.837   1.210
  791WAT     H2 2396   5.986   3.802   1.351
  792WAT      O 2397   6.396   5.313   2.799
  792WAT     H1 2398   6.388   5.404   2.830
  792WAT     H2 2399   6.306   5.281   2.796
  793WAT      O 2400   6.234   3.731   1.400
  793WAT     H1 2401   6.199   3.663   1.342
  793WAT     H2 2402   6.254   3.685   1.481
  794WAT      O 2403   6.451   5.230   1.562
  794WAT     H1 2404   6.540   5.264   1.564
  794WAT     H2 2405   6.454   5.158   1.499
  795WAT      O 2406   5.815   4.767   1.384
  795WAT     H1 2407   5.858   4.821   1.450
  795WAT     H2 2408   5.863   4.685   1.385
  796WAT      O 2409   5.536   5.046   2.130
  796WAT     H1 2410   5.569   4.959   2.106
  796WAT     H2 2411   5.579   5.067   2.213
  797WAT      O 2412   5.996   4.879   1.896
  797WAT     H1 2413   5.966   4.867   1.986
  797WAT     H2 2414   5.985   4.793   1.855
  798WAT      O 2415   5.585   5.133   2.403
  798WAT     H1 2416   5.541   5.151   2.487
  798WAT     H2 2417   5.642   5.208   2.389
  799WAT      O 2418   5.568   4.384   2.039
  799WAT     H1 2419   5.503   4.357   1.975
  799WAT     H2 2420   5.652   4.373   1.994
  800WAT      O 2421   6.863   3.863   1.461
  800WAT     H1 2422   6.905   3.845   1.377
  800WAT     H2 2423   6.832   3.778   1.493
  801WAT      O 2424   5.672   4.422   2.493
  801WAT     H1 2425   5.709   4.414   2.581
  801WAT     H2 2426   5.615   4.346   2.483
  802WAT      O 2427   5.627   4.114   2.884
  802WAT     H1 2428   5.538   4.110   2.918
  802WAT     H2 2429   5.681   4.133   2.960
  803WAT      O 2430   5.490   4.105   1.634
  803WAT     H1 2431   5.399   4.131   1.616
  803WAT     H2 2432   5.538   4.132   1.556
  804WAT      O 2433   5.744   4.011   1.424
  804WAT     H1 2434   5.815   3.968   1.376
  804WAT     H2 2435   5.672   4.017   1.361
  805WAT      O 2436   5.709   3.616   1.329
  805WAT     H1 2437   5.781   3.670   1.360
  805WAT     H2 2438   5.736   3.589   1.241
  806WAT      O 2439   5.677   3.541   2.319
  806WAT     H1 2440   5.742   3.486   2.275
  806WAT     H2 2441   5.720   3.566   2.401
  807WAT      O 2442   5.653   3.557   2.593
  807WAT     H1 2443   5.618   3.602   2.670
  807WAT     H2 2444   5.620   3.467   2.601
  808WAT      O 2445   5.813   4.874   3.010
  808WAT     H1 2446   5.809   4.837   3.098
  808WAT     H2 2447   5.827   4.968   3.024
  809WAT      O 2448   6.184   5.029   2.570
  809WAT     H1 2449   6.159   5.056   2.481
  809WAT     H2 2450   6.278   5.046   2.575
  810WAT      O 2451   6.404   3.676   2.945
  810WAT     H1 2452   6.398   3.735   3.020
  810WAT     H2 2453   6.498   3.665   2.931
  811WAT      O 2454   6.668   3.641   2.909
  811WAT     H1 2455   6.729   3.673   2.843
  811WAT     H2 2456   6.722   3.593   2.971
  812WAT      O 2457   5.720   3.509   2.921
  812WAT     H1 2458   5.775   3.491   2.844
  812WAT     H2 2459   5.727   3.430   2.974
  813WAT      O 2460   5.797   5.168   2.722
  813WAT     H1 2461   5.738   5.155   2.795
  813WAT     H2 2462   5.797   5.085   2.675
  814WAT      O 2463   6.742   3.498   2.542
  814WAT     H1 2464   6.654   3.531   2.522
  814WAT     H2 2465   6.731   3.450   2.624
  815WAT      O 2466   6.833   3.718   2.680
  815WAT     H1 2467   6.800   3.637   2.642
  815WAT     H2 2468   6.927   3.714   2.668
  816WAT      O 2469   5.760   4.905   2.617
  816WAT     H1 2470   5.688   4.843   2.610
  816WAT     H2 2471   5.767   4.944   2.530
  817WAT      O 2472   6.121   5.126   2.295
  817WAT     H1 2473   6.173   5.065   2.243
  817WAT     H2 2474   6.186   5.177   2.344
  818WAT      O 2475   6.395   5.216   2.378
  818WAT     H1 2476   6.424   5.190   2.290
  818WAT     H2 2477   6.446   5.160   2.437
  819WAT      O 2478   6.517   3.589   2.436
  819WAT     H1 2479   6.438   3.637   2.464
  819WAT     H2 2480   6.487   3.499   2.425
  820WAT      O 2481   5.589   5.237   1.938
  820WAT     H1 2482   5.572   5.173   2.007
  820WAT     H2 2483   5.502   5.257   1.902
  821WAT      O 2484   5.651   3.620   1.688
  821WAT     H1 2485   5.727   3.631   1.631
  821WAT     H2 2486   5.605   3.704   1.683
  822WAT      O 2487   6.305   3.831   1.987
  822WAT     H1 2488   6.224   3.794   1.953
  822WAT     H2 2489   6.356   3.756   2.017
  823WAT      O 2490   6.755   3.498   2.111
  823WAT     H1 2491   6.816   3.555   2.158
  823WAT     H2 2492   6.681   3.554   2.088
  824WAT      O 2493   5.749   5.106   1.682
  824WAT     H1 2494   5.697   5.144   1.612
  824WAT     H2 2495   5.742   5.169   1.754
  825WAT      O 2496   5.888   3.673   1.542
  825WAT     H1 2497   5.941   3.594   1.529
  825WAT     H2 2498   5.952   3.740   1.565
  826WAT      O 2499   6.108   3.646   1.847
  826WAT     H1 2500   6.045   3.576   1.864
  826WAT     H2 2501   6.054   3.722   1.826
  827WAT      O 2502   6.402   5.308   3.114
  827WAT     H1 2503   6.494   5.284   3.119
  827WAT     H2 2504   6.400   5.390   3.066
  828WAT      O 2505   6.120   3.574   3.091
  828WAT     H1 2506   6.092   3.624   3.014
  828WAT     H2 2507   6.158   3.494   3.054
  829WAT      O 2508   6.009   5.301   1.570
  829WAT     H1 2509   6.083   5.272   1.515
  829WAT     H2 2510   6.035   5.277   1.659
  830WAT      O 2511   5.925   4.913   1.570
  830WAT     H1 2512   5.863   4.959   1.625
  830WAT     H2 2513   5.937   4.828   1.613
  831WAT      O 2514   6.780   3.516   3.149
  831WAT     H1 2515   6.769   3.548   3.238
  831WAT     H2 2516   6.862   3.556   3.119
  832WAT      O 2517   6.484   4.495   0.373
  832WAT     H1 2518   6.407   4.447   0.402
  832WAT     H2 2519   6.549   4.427   0.356
  833WAT      O 2520   5.886   4.527   0.461
  833WAT     H1 2521   5.803   4.501   0.501
  833WAT     H2 2522   5.947   4.534   0.534
  834WAT      O 2523   6.886   4.936   0.251
  834WAT     H1 2524   6.840   4.859   0.284
  834WAT     H2 2525   6.967   4.939   0.302
  835WAT      O 2526   5.884   4.930   0.480
  835WAT     H1 2527   5.914   4.841   0.463
  835WAT     H2 2528   5.958   4.986   0.458
  836WAT      O 2529   5.523   4.283   0.428
  836WAT     H1 2530   5.580   4.206   0.428
  836WAT     H2 2531   5.523   4.313   0.337
  837WAT      O 2532   6.428   4.763   0.374
  837WAT     H1 2533   6.421   4.669   0.358
  837WAT     H2 2534   6.504   4.772   0.431
  838WAT      O 2535   5.647   3.823   0.606
  838WAT     H1 2536   5.629   3.734   0.634
  838WAT     H2 2537   5.607   3.878   0.674
  839WAT      O 2538   6.531   4.044   0.397
  839WAT     H1 2539   6.569   3.956   0.385
  839WAT     H2 2540   6.521   4.077   0.307
  840WAT      O 2541   5.709   4.073   0.467
  840WAT     H1 2542   5.777   4.099   0.529
  840WAT     H2 2543   5.678   3.989   0.501
  841WAT      O 2544   6.128   4.178   0.376
  841WAT     H1 2545   6.179   4.228   0.440
  841WAT     H2 2546   6.182   4.100   0.358
  842WAT      O 2547   5.957   3.642   0.803
  842WAT     H1 2548   5.957   3.693   0.722
  842WAT     H2 2549   5.874   3.594   0.800
  843WAT      O 2550   6.082   4.606   0.620
  843WAT     H1 2551   6.048   4.668   0.685
  843WAT     H2 2552   6.099   4.658   0.542
  844WAT      O 2553   6.933   3.987   0.367
  844WAT     H1 2554   6.863   4.016   0.425
  844WAT     H2 2555   6.969   4.068   0.331
  845WAT      O 2556   5.925   3.813   0.603
  845WAT     H1 2557   5.959   3.897   0.574
  845WAT     H2 2558   5.831   3.828   0.615
  846WAT      O 2559   6.003   4.803   0.802
  846WAT     H1 2560   6.065   4.870   0.774
  846WAT     H2 2561   5.917   4.843   0.793
  847WAT      O 2562   6.848   5.133   0.465
  847WAT     H1 2563   6.850   5.093   0.378
  847WAT     H2 2564   6.793   5.211   0.454
  848WAT      O 2565   6.788   4.624   0.598
  848WAT     H1 2566   6.830   4.602   0.514
  848WAT     H2 2567   6.861   4.649   0.655
  849WAT      O 2568   6.879   4.142   0.701
  849WAT     H1 2569   6.838   4.225   0.727
  849WAT     H2 2570   6.806   4.084   0.682
  850WAT      O 2571   6.139   4.789   0.404
  850WAT     H1 2572   6.110   4.729   0.336
  850WAT     H2 2573   6.234   4.793   0.393
  851WAT      O 2574   5.964   4.098   0.566
  851WAT     H1 2575   6.019   4.109   0.488
  851WAT     H2 2576   6.015   4.136   0.637
  852WAT      O 2577   6.948   5.147   0.770
  852WAT     H1 2578   6.901   5.228   0.751
  852WAT     H2 2579   6.880   5.082   0.785
  853WAT      O 2580   6.049   4.763   1.069
  853WAT     H1 2581   5.959   4.786   1.094
  853WAT     H2 2582   6.051   4.776   0.974
  854WAT      O 2583   5.931   4.450   0.927
  854WAT     H1 2584   5.917   4.538   0.963
  854WAT     H2 2585   5.843   4.416   0.912
  855WAT      O 2586   6.111   5.045   1.147
  855WAT     H1 2587   6.108   5.085   1.061
  855WAT     H2 2588   6.095   4.952   1.131
  856WAT      O 2589   5.526   4.627   0.518
  856WAT     H1 2590   5.534   4.641   0.424
  856WAT     H2 2591   5.588   4.557   0.538
  857WAT      O 2592   6.633   5.212   0.850
  857WAT     H1 2593   6.684   5.203   0.930
  857WAT     H2 2594   6.548   5.247   0.879
  858WAT      O 2595   5.532   4.732   0.772
  858WAT     H1 2596   5.548   4.685   0.690
  858WAT     H2 2597   5.579   4.681   0.839
  859WAT      O 2598   6.009   3.645   0.276
  859WAT     H1 2599   5.965   3.723   0.243
  859WAT     H2 2600   6.065   3.677   0.347
  860WAT      O 2601   6.438   3.931   0.836
  860WAT     H1 2602   6.392   3.952   0.917
  860WAT     H2 2603   6.398   3.850   0.806
  861WAT      O 2604   6.938   4.053   0.949
  861WAT     H1 2605   6.853   4.023   0.981
  861WAT     H2 2606   6.922   4.078   0.858
  862WAT      O 2607   6.648   4.203   1.159
  862WAT     H1 2608   6.680   4.120   1.125
  862WAT     H2 2609   6.726   4.256   1.174
  863WAT      O 2610   6.213   3.699   0.462
  863WAT     H1 2611   6.243   3.790   0.454
  863WAT     H2 2612   6.268   3.650   0.400
  864WAT      O 2613   6.232   4.247   1.115
  864WAT     H1 2614   6.223   4.153   1.100
  864WAT     H2 2615   6.317   4.269   1.076
  865WAT      O 2616   5.746   3.888   0.931
  865WAT     H1 2617   5.706   3.973   0.951
  865WAT     H2 2618   5.677   3.824   0.950
  866WAT      O 2619   6.403   3.896   1.238
  866WAT     H1 2620   6.334   3.877   1.301
  866WAT     H2 2621   6.477   3.925   1.291
  867WAT      O 2622   5.476   3.680   0.334
  867WAT     H1 2623   5.447   3.737   0.405
  867WAT     H2 2624   5.550   3.632   0.370
  868WAT      O 2625   6.631   4.280   0.521
  868WAT     H1 2626   6.557   4.331   0.556
  868WAT     H2 2627   6.591   4.199   0.491
  869WAT      O 2628   6.274   3.948   0.362
  869WAT     H1 2629   6.275   3.904   0.277
  869WAT     H2 2630   6.364   3.980   0.372
  870WAT      O 2631   5.859   3.936   0.258
  870WAT     H1 2632   5.825   3.984   0.333
  870WAT     H2 2633   5.783   3.891   0.222
  871WAT      O 2634   6.677   3.826   0.462
  871WAT     H1 2635   6.679   3.871   0.547
  871WAT     H2 2636   6.652   3.736   0.484
  872WAT      O 2637   5.689   4.669   0.988
  872WAT     H1 2638   5.651   4.605   1.048
  872WAT     H2 2639   5.721   4.739   1.045
  873WAT      O 2640   6.304   4.354   0.536
  873WAT     H1 2641   6.341   4.306   0.611
  873WAT     H2 2642   6.285   4.441   0.570
  874WAT      O 2643   6.083   4.258   0.768
  874WAT     H1 2644   6.053   4.346   0.791
  874WAT     H2 2645   6.179   4.264   0.772
  875WAT      O 2646   6.550   4.585   0.996
  875WAT     H1 2647   6.544   4.493   0.970
  875WAT     H2 2648   6.487   4.595   1.067
  876WAT      O 2649   5.941   4.645   0.192
  876WAT     H1 2650   5.992   4.565   0.186
  876WAT     H2 2651   5.895   4.639   0.276
  877WAT      O 2652   5.689   4.342   0.883
  877WAT     H1 2653   5.653   4.408   0.942
  877WAT     H2 2654   5.660   4.259   0.920
  878WAT      O 2655   6.009   4.388   1.171
  878WAT     H1 2656   5.979   4.402   1.081
  878WAT     H2 2657   6.086   4.332   1.162
  879WAT      O 2658   6.543   4.867   0.971
  879WAT     H1 2659   6.545   4.774   0.949
  879WAT     H2 2660   6.473   4.876   1.035
  880WAT      O 2661   6.718   4.704   0.255
  880WAT     H1 2662   6.753   4.644   0.189
  880WAT     H2 2663   6.629   4.672   0.272
  881WAT      O 2664   6.487   5.032   0.680
  881WAT     H1 2665   6.551   5.052   0.748
  881WAT     H2 2666   6.523   4.956   0.635
  882WAT      O 2667   6.614   4.832   0.552
  882WAT     H1 2668   6.678   4.762   0.563
  882WAT     H2 2669   6.667   4.910   0.534
  883WAT      O 2670   6.792   4.912   0.872
  883WAT     H1 2671   6.825   4.971   0.940
  883WAT     H2 2672   6.700   4.899   0.895
  884WAT      O 2673   5.547   3.691   0.951
  884WAT     H1 2674   5.475   3.711   1.011
  884WAT     H2 2675   5.589   3.613   0.988
  885WAT      O 2676   5.575   5.090   1.049
  885WAT     H1 2677   5.586   4.996   1.035
  885WAT     H2 2678   5.510   5.116   0.984
  886WAT      O 2679   6.374   4.917   1.189
  886WAT     H1 2680   6.342   4.845   1.244
  886WAT     H2 2681   6.307   4.984   1.197
  887WAT      O 2682   6.696   3.940   0.726
  887WAT     H1 2683   6.733   3.858   0.758
  887WAT     H2 2684   6.610   3.946   0.767
  888WAT      O 2685   6.392   4.205   0.748
  888WAT     H1 2686   6.442   4.253   0.814
  888WAT     H2 2687   6.406   4.113   0.769
  889WAT      O 2688   6.942   4.352   0.177
  889WAT     H1 2689   6.848   4.353   0.194
  889WAT     H2 2690   6.973   4.273   0.221
  890WAT      O 2691   5.889   5.278   0.312
  890WAT     H1 2692   5.963   5.223   0.339
  890WAT     H2 2693   5.928   5.364   0.298
  891WAT      O 2694   5.790   5.196   1.230
  891WAT     H1 2695   5.870   5.228   1.272
  891WAT     H2 2696   5.738   5.160   1.303
  892WAT      O 2697   6.674   4.807   1.225
  892WAT     H1 2698   6.613   4.809   1.151
  892WAT     H2 2699   6.643   4.734   1.279
  893WAT      O 2700   6.817   5.180   1.086
  893WAT     H1 2701   6.912   5.172   1.081
  893WAT     H2 2702   6.802   5.246   1.154
  894WAT      O 2703   5.562   4.445   1.125
  894WAT     H1 2704   5.612   4.387   1.182
  894WAT     H2 2705   5.488   4.474   1.179
  895WAT      O 2706   6.267   4.586   1.078
  895WAT     H1 2707   6.191   4.643   1.070
  895WAT     H2 2708   6.285   4.557   0.989
  896WAT      O 2709   5.765   4.259   1.214
  896WAT     H1 2710   5.769   4.230   1.305
  896WAT     H2 2711   5.851   4.299   1.198
  897WAT      O 2712   5.959   4.117   1.011
  897WAT     H1 2713   5.906   4.068   0.948
  897WAT     H2 2714   6.026   4.160   0.958
  898WAT      O 2715   6.849   4.564   0.987
  898WAT     H1 2716   6.890   4.579   1.072
  898WAT     H2 2717   6.755   4.577   1.004
  899WAT      O 2718   6.896   4.298   1.188
  899WAT     H1 2719   6.954   4.222   1.179
  899WAT     H2 2720   6.914   4.351   1.110
  900WAT      O 2721   6.008   3.814   1.019
  900WAT     H1 2722   5.998   3.752   0.946
  900WAT     H2 2723   5.950   3.887   0.996
  901WAT      O 2724   6.284   3.670   0.722
  901WAT     H1 2725   6.240   3.672   0.638
  901WAT     H2 2726   6.221   3.630   0.782
  902WAT      O 2727   6.325   4.559   0.784
  902WAT     H1 2728   6.367   4.644   0.767
  902WAT     H2 2729   6.233   4.573   0.761
  903WAT      O 2730   6.559   4.332   0.923
  903WAT     H1 2731   6.571   4.273   0.997
  903WAT     H2 2732   6.645   4.336   0.881
  904WAT      O 2733   6.793   4.388   0.780
  904WAT     H1 2734   6.740   4.440   0.720
  904WAT     H2 2735   6.827   4.451   0.843
  905WAT      O 2736   6.110   5.190   0.896
  905WAT     H1 2737   6.056   5.262   0.864
  905WAT     H2 2738   6.135   5.142   0.817
  906WAT      O 2739   6.235   3.987   1.049
  906WAT     H1 2740   6.294   3.956   1.117
  906WAT     H2 2741   6.154   3.939   1.064
  907WAT      O 2742   6.717   3.948   1.072
  907WAT     H1 2743   6.648   3.882   1.065
  907WAT     H2 2744   6.789   3.904   1.116
  908WAT      O 2745   6.396   5.313   0.922
  908WAT     H1 2746   6.388   5.404   0.953
  908WAT     H2 2747   6.306   5.281   0.919
  909WAT      O 2748   5.536   5.046   0.252
  909WAT     H1 2749   5.569   4.959   0.229
  909WAT     H2 2750   5.579   5.067   0.335
  910WAT      O 2751   5.585   5.133   0.526
  910WAT     H1 2752   5.541   5.151   0.609
  910WAT     H2 2753   5.642   5.208   0.512
  911WAT      O 2754   5.672   4.422   0.616
  911WAT     H1 2755   5.709   4.414   0.704
  911WAT     H2 2756   5.615   4.346   0.606
  912WAT      O 2757   5.627   4.114   1.006
  912WAT     H1 2758   5.538   4.110   1.040
  912WAT     H2 2759   5.681   4.133   1.083
  913WAT      O 2760   5.677   3.541   0.441
  913WAT     H1 2761   5.742   3.486   0.397
  913WAT     H2 2762   5.720   3.566   0.523
  914WAT      O 2763   5.653   3.557   0.716
  914WAT     H1 2764   5.618   3.602   0.792
  914WAT     H2 2765   5.620   3.467   0.724
  915WAT      O 2766   5.813   4.874   1.132
  915WAT     H1 2767   5.809   4.837   1.220
  915WAT     H2 2768   5.827   4.968   1.146
  916WAT      O 2769   6.184   5.029   0.692
  916WAT     H1 2770   6.159   5.056   0.603
  916WAT     H2 2771   6.278   5.046   0.698
  917WAT      O 2772   6.404   3.676   1.068
  917WAT     H1 2773   6.398   3.735   1.143
  917WAT     H2 2774   6.498   3.665   1.053
  918WAT      O 2775   6.668   3.641   1.032
  918WAT     H1 2776   6.729   3.673   0.965
  918WAT     H2 2777   6.722   3.593   1.094
  919WAT      O 2778   5.720   3.509   1.043
  919WAT     H1 2779   5.775   3.491   0.967
  919WAT     H2 2780   5.727   3.430   1.097
  920WAT      O 2781   5.797   5.168   0.844
  920WAT     H1 2782   5.738   5.155   0.918
  920WAT     H2 2783   5.797   5.085   0.797
  921WAT      O 2784   6.742   3.498   0.664
  921WAT     H1 2785   6.654   3.531   0.644
  921WAT     H2 2786   6.731   3.450   0.747
  922WAT      O 2787   6.833   3.718   0.803
  922WAT     H1 2788   6.800   3.637   0.765
  922WAT     H2 2789   6.927   3.714   0.790
  923WAT      O 2790   5.760   4.905   0.739
  923WAT     H1 2791   5.688   4.843   0.732
  923WAT     H2 2792   5.767   4.944   0.652
  924WAT      O 2793   6.121   5.126   0.418
  924WAT     H1 2794   6.173   5.065   0.365
  924WAT     H2 2795   6.186   5.177   0.467
  925WAT      O 2796   6.395   5.216   0.500
  925WAT     H1 2797   6.424   5.190   0.413
  925WAT     H2 2798   6.446   5.160   0.559
  926WAT      O 2799   6.517   3.589   0.558
  926WAT     H1 2800   6.438   3.637   0.586
  926WAT     H2 2801   6.487   3.499   0.547
  927WAT      O 2802   6.755   3.498   0.233
  927WAT     H1 2803   6.816   3.555   0.281
  927WAT     H2 2804   6.681   3.554   0.211
  928WAT      O 2805   6.402   5.308   1.237
  928WAT     H1 2806   6.494   5.284   1.241
  928WAT     H2 2807   6.400   5.390   1.189
  929WAT      O 2808   6.120   3.574   1.213
  929WAT     H1 2809   6.092   3.624   1.137
  929WAT     H2 2810   6.158   3.494   1.177
  930WAT      O 2811   6.780   3.516   1.271
  930WAT     H1 2812   6.769   3.548   1.361
  930WAT     H2 2813   6.862   3.556   1.242
  931WAT      O 2814   6.671   2.440   5.817
  931WAT     H1 2815   6.663   2.349   5.790
  931WAT     H2 2816   6.630   2.490   5.747
  932WAT      O 2817   6.484   2.618   6.005
  932WAT     H1 2818   6.407   2.570   6.034
  932WAT     H2 2819   6.549   2.550   5.988
  933WAT      O 2820   6.886   3.059   5.883
  933WAT     H1 2821   6.840   2.981   5.916
  933WAT     H2 2822   6.967   3.061   5.934
  934WAT      O 2823   5.884   3.053   6.113
  934WAT     H1 2824   5.914   2.964   6.095
  934WAT     H2 2825   5.958   3.108   6.090
  935WAT      O 2826   5.727   2.145   5.472
  935WAT     H1 2827   5.638   2.179   5.461
  935WAT     H2 2828   5.755   2.125   5.382
  936WAT      O 2829   5.523   2.405   6.060
  936WAT     H1 2830   5.580   2.328   6.060
  936WAT     H2 2831   5.523   2.435   5.969
  937WAT      O 2832   6.509   3.287   5.845
  937WAT     H1 2833   6.447   3.333   5.788
  937WAT     H2 2834   6.594   3.303   5.805
  938WAT      O 2835   6.428   2.886   6.006
  938WAT     H1 2836   6.421   2.791   5.990
  938WAT     H2 2837   6.504   2.895   6.063
  939WAT      O 2838   6.531   2.166   6.029
  939WAT     H1 2839   6.569   2.079   6.018
  939WAT     H2 2840   6.521   2.200   5.940
  940WAT      O 2841   5.944   2.003   5.575
  940WAT     H1 2842   5.955   2.094   5.606
  940WAT     H2 2843   5.853   1.999   5.546
  941WAT      O 2844   6.128   2.300   6.008
  941WAT     H1 2845   6.179   2.350   6.072
  941WAT     H2 2846   6.182   2.223   5.991
  942WAT      O 2847   6.595   2.776   5.585
  942WAT     H1 2848   6.534   2.822   5.528
  942WAT     H2 2849   6.647   2.845   5.626
  943WAT      O 2850   6.933   2.110   5.999
  943WAT     H1 2851   6.863   2.139   6.057
  943WAT     H2 2852   6.969   2.191   5.963
  944WAT      O 2853   5.532   2.844   5.322
  944WAT     H1 2854   5.495   2.893   5.249
  944WAT     H2 2855   5.558   2.911   5.385
  945WAT      O 2856   6.293   1.684   5.868
  945WAT     H1 2857   6.324   1.629   5.796
  945WAT     H2 2858   6.200   1.698   5.850
  946WAT      O 2859   6.848   3.256   6.097
  946WAT     H1 2860   6.850   3.216   6.010
  946WAT     H2 2861   6.793   3.333   6.087
  947WAT      O 2862   6.978   2.928   5.606
  947WAT     H1 2863   6.967   2.834   5.618
  947WAT     H2 2864   6.977   2.964   5.695
  948WAT      O 2865   6.532   2.491   5.542
  948WAT     H1 2866   6.439   2.484   5.565
  948WAT     H2 2867   6.547   2.585   5.530
  949WAT      O 2868   6.531   2.118   5.241
  949WAT     H1 2869   6.437   2.134   5.250
  949WAT     H2 2870   6.563   2.190   5.187
  950WAT      O 2871   6.935   2.647   5.592
  950WAT     H1 2872   6.873   2.613   5.527
  950WAT     H2 2873   6.933   2.583   5.663
  951WAT      O 2874   6.093   2.543   5.820
  951WAT     H1 2875   6.052   2.472   5.770
  951WAT     H2 2876   6.101   2.509   5.909
  952WAT      O 2877   6.139   2.912   6.036
  952WAT     H1 2878   6.110   2.852   5.968
  952WAT     H2 2879   6.234   2.916   6.025
  953WAT      O 2880   6.753   2.571   5.293
  953WAT     H1 2881   6.797   2.487   5.278
  953WAT     H2 2882   6.824   2.634   5.301
  954WAT      O 2883   6.564   3.065   5.690
  954WAT     H1 2884   6.608   3.139   5.648
  954WAT     H2 2885   6.557   3.089   5.782
  955WAT      O 2886   5.763   2.433   5.570
  955WAT     H1 2887   5.751   2.505   5.509
  955WAT     H2 2888   5.732   2.356   5.522
  956WAT      O 2889   5.651   2.920   5.792
  956WAT     H1 2890   5.610   2.934   5.706
  956WAT     H2 2891   5.740   2.892   5.771
  957WAT      O 2892   6.830   3.363   5.425
  957WAT     H1 2893   6.814   3.334   5.515
  957WAT     H2 2894   6.814   3.286   5.372
  958WAT      O 2895   6.078   3.341   5.603
  958WAT     H1 2896   6.061   3.250   5.582
  958WAT     H2 2897   5.993   3.377   5.627
  959WAT      O 2898   6.801   3.114   5.281
  959WAT     H1 2899   6.731   3.114   5.215
  959WAT     H2 2900   6.875   3.072   5.238
  960WAT      O 2901   6.757   3.277   5.689
  960WAT     H1 2902   6.803   3.199   5.720
  960WAT     H2 2903   6.791   3.348   5.743
  961WAT      O 2904   6.009   1.767   5.908
  961WAT     H1 2905   5.965   1.845   5.875
  961WAT     H2 2906   6.065   1.799   5.979
  962WAT      O 2907   6.321   1.729   5.396
  962WAT     H1 2908   6.258   1.729   5.469
  962WAT     H2 2909   6.312   1.643   5.357
  963WAT      O 2910   6.213   1.822   6.094
  963WAT     H1 2911   6.243   1.912   6.086
  963WAT     H2 2912   6.268   1.773   6.033
  964WAT      O 2913   5.988   2.280   5.681
  964WAT     H1 2914   5.966   2.258   5.771
  964WAT     H2 2915   5.910   2.323   5.646
  965WAT      O 2916   6.711   2.280   5.541
  965WAT     H1 2917   6.651   2.353   5.522
  965WAT     H2 2918   6.766   2.274   5.463
  966WAT      O 2919   6.572   2.144   5.744
  966WAT     H1 2920   6.611   2.175   5.663
  966WAT     H2 2921   6.608   2.056   5.755
  967WAT      O 2922   5.476   1.803   5.966
  967WAT     H1 2923   5.447   1.860   6.037
  967WAT     H2 2924   5.550   1.755   6.002
  968WAT      O 2925   5.494   2.197   5.087
  968WAT     H1 2926   5.486   2.291   5.101
  968WAT     H2 2927   5.459   2.183   4.999
  969WAT      O 2928   6.274   2.070   5.994
  969WAT     H1 2929   6.275   2.026   5.909
  969WAT     H2 2930   6.364   2.103   6.005
  970WAT      O 2931   5.859   2.059   5.890
  970WAT     H1 2932   5.825   2.106   5.966
  970WAT     H2 2933   5.783   2.013   5.854
  971WAT      O 2934   6.281   2.170   5.293
  971WAT     H1 2935   6.293   2.166   5.388
  971WAT     H2 2936   6.242   2.257   5.277
  972WAT      O 2937   6.182   2.402   5.233
  972WAT     H1 2938   6.125   2.357   5.170
  972WAT     H2 2939   6.253   2.437   5.179
  973WAT      O 2940   5.591   1.951   5.782
  973WAT     H1 2941   5.562   1.914   5.865
  973WAT     H2 2942   5.585   1.878   5.720
  974WAT      O 2943   5.936   2.801   5.460
  974WAT     H1 2944   5.859   2.747   5.444
  974WAT     H2 2945   6.009   2.749   5.426
  975WAT      O 2946   6.558   1.840   5.454
  975WAT     H1 2947   6.477   1.790   5.446
  975WAT     H2 2948   6.539   1.924   5.412
  976WAT      O 2949   6.830   2.277   5.283
  976WAT     H1 2950   6.919   2.308   5.266
  976WAT     H2 2951   6.827   2.190   5.244
  977WAT      O 2952   5.941   2.768   5.824
  977WAT     H1 2953   5.992   2.688   5.818
  977WAT     H2 2954   5.895   2.762   5.908
  978WAT      O 2955   6.429   2.895   5.351
  978WAT     H1 2956   6.463   2.969   5.302
  978WAT     H2 2957   6.346   2.926   5.387
  979WAT      O 2958   6.718   2.827   5.888
  979WAT     H1 2959   6.753   2.767   5.822
  979WAT     H2 2960   6.629   2.794   5.905
  980WAT      O 2961   6.326   2.903   5.628
  980WAT     H1 2962   6.395   2.957   5.666
  980WAT     H2 2963   6.248   2.957   5.632
  981WAT      O 2964   5.540   2.464   5.177
  981WAT     H1 2965   5.627   2.493   5.206
  981WAT     H2 2966   5.491   2.546   5.166
  982WAT      O 2967   6.256   2.603   5.590
  982WAT     H1 2968   6.302   2.684   5.612
  982WAT     H2 2969   6.221   2.571   5.673
  983WAT      O 2970   5.847   1.638   5.637
  983WAT     H1 2971   5.834   1.637   5.732
  983WAT     H2 2972   5.764   1.671   5.602
  984WAT      O 2973   5.577   3.386   5.234
  984WAT     H1 2974   5.613   3.446   5.169
  984WAT     H2 2975   5.563   3.440   5.311
  985WAT      O 2976   6.179   3.124   5.316
  985WAT     H1 2977   6.178   3.197   5.254
  985WAT     H2 2978   6.087   3.099   5.325
  986WAT      O 2979   5.739   2.646   5.390
  986WAT     H1 2980   5.678   2.720   5.391
  986WAT     H2 2981   5.786   2.655   5.308
  987WAT      O 2982   6.477   3.130   5.182
  987WAT     H1 2983   6.487   3.110   5.089
  987WAT     H2 2984   6.387   3.105   5.203
  988WAT      O 2985   6.229   2.186   5.580
  988WAT     H1 2986   6.159   2.233   5.624
  988WAT     H2 2987   6.258   2.120   5.644
  989WAT      O 2988   6.633   1.859   5.724
  989WAT     H1 2989   6.620   1.860   5.629
  989WAT     H2 2990   6.727   1.863   5.736
  990WAT      O 2991   6.341   3.382   5.652
  990WAT     H1 2992   6.367   3.378   5.559
  990WAT     H2 2993   6.246   3.369   5.651
  991WAT      O 2994   6.050   2.017   5.318
  991WAT     H1 2995   6.135   2.061   5.311
  991WAT     H2 2996   6.013   2.048   5.401
  992WAT      O 2997   6.942   2.474   5.809
  992WAT     H1 2998   6.848   2.476   5.827
  992WAT     H2 2999   6.973   2.395   5.854
  993WAT      O 3000   5.940   2.642   5.165
  993WAT     H1 3001   6.016   2.631   5.221
  993WAT     H2 3002   5.947   2.573   5.100
  994WAT      O 3003   5.809   2.386   5.234
  994WAT     H1 3004   5.817   2.291   5.245
  994WAT     H2 3005   5.898   2.419   5.244
  995WAT      O 3006   5.889   3.400   5.944
  995WAT     H1 3007   5.963   3.346   5.971
  995WAT     H2 3008   5.928   3.487   5.930
  996WAT      O 3009   5.578   3.007   5.531
  996WAT     H1 3010   5.485   3.031   5.530
  996WAT     H2 3011   5.624   3.090   5.519
  997WAT      O 3012   6.200   3.318   5.126
  997WAT     H1 3013   6.280   3.347   5.081
  997WAT     H2 3014   6.148   3.275   5.058
  998WAT      O 3015   6.252   2.840   5.113
  998WAT     H1 3016   6.242   2.778   5.185
  998WAT     H2 3017   6.235   2.787   5.034
  999WAT      O 3018   6.576   2.746   5.173
  999WAT     H1 3019   6.521   2.791   5.237
  999WAT     H2 3020   6.638   2.696   5.225
 1000WAT      O 3021   6.143   2.642   5.363
 1000WAT     H1 3022   6.185   2.625   5.447
 1000WAT     H2 3023   6.155   2.561   5.313
 1001WAT      O 3024   6.394   2.544   5.087
 1001WAT     H1 3025   6.446   2.473   5.051
 1001WAT     H2 3026   6.459   2.608   5.117
 1002WAT      O 3027   6.032   2.249   5.057
 1002WAT     H1 3028   6.012   2.163   5.093
 1002WAT     H2 3029   6.015   2.241   4.963
 1003WAT      O 3030   6.780   1.730   5.310
 1003WAT     H1 3031   6.808   1.646   5.346
 1003WAT     H2 3032   6.703   1.754   5.361
 1004WAT      O 3033   5.912   1.959   5.056
 1004WAT     H1 3034   5.943   1.960   4.965
 1004WAT     H2 3035   5.986   1.924   5.106
 1005WAT      O 3036   6.234   1.854   5.155
 1005WAT     H1 3037   6.199   1.786   5.097
 1005WAT     H2 3038   6.254   1.807   5.236
 1006WAT      O 3039   6.451   3.352   5.316
 1006WAT     H1 3040   6.540   3.386   5.319
 1006WAT     H2 3041   6.454   3.280   5.254
 1007WAT      O 3042   5.815   2.890   5.139
 1007WAT     H1 3043   5.858   2.944   5.205
 1007WAT     H2 3044   5.863   2.807   5.140
 1008WAT      O 3045   5.536   3.169   5.884
 1008WAT     H1 3046   5.569   3.082   5.861
 1008WAT     H2 3047   5.579   3.189   5.968
 1009WAT      O 3048   5.996   3.002   5.650
 1009WAT     H1 3049   5.966   2.989   5.741
 1009WAT     H2 3050   5.985   2.916   5.610
 1010WAT      O 3051   5.568   2.506   5.794
 1010WAT     H1 3052   5.503   2.480   5.730
 1010WAT     H2 3053   5.652   2.496   5.749
 1011WAT      O 3054   6.863   1.986   5.216
 1011WAT     H1 3055   6.905   1.967   5.132
 1011WAT     H2 3056   6.832   1.901   5.247
 1012WAT      O 3057   5.490   2.227   5.388
 1012WAT     H1 3058   5.399   2.254   5.371
 1012WAT     H2 3059   5.538   2.255   5.310
 1013WAT      O 3060   5.744   2.133   5.179
 1013WAT     H1 3061   5.815   2.091   5.131
 1013WAT     H2 3062   5.672   2.140   5.116
 1014WAT      O 3063   5.709   1.739   5.083
 1014WAT     H1 3064   5.781   1.793   5.115
 1014WAT     H2 3065   5.736   1.711   4.996
 1015WAT      O 3066   6.121   3.249   6.050
 1015WAT     H1 3067   6.173   3.188   5.997
 1015WAT     H2 3068   6.186   3.299   6.099
 1016WAT      O 3069   5.589   3.359   5.692
 1016WAT     H1 3070   5.572   3.296   5.762
 1016WAT     H2 3071   5.502   3.380   5.657
 1017WAT      O 3072   5.651   1.742   5.443
 1017WAT     H1 3073   5.727   1.754   5.385
 1017WAT     H2 3074   5.605   1.826   5.438
 1018WAT      O 3075   6.305   1.954   5.742
 1018WAT     H1 3076   6.224   1.916   5.708
 1018WAT     H2 3077   6.356   1.878   5.772
 1019WAT      O 3078   6.755   1.620   5.866
 1019WAT     H1 3079   6.816   1.677   5.913
 1019WAT     H2 3080   6.681   1.677   5.843
 1020WAT      O 3081   5.749   3.229   5.437
 1020WAT     H1 3082   5.697   3.267   5.367
 1020WAT     H2 3083   5.742   3.291   5.509
 1021WAT      O 3084   5.888   1.795   5.297
 1021WAT     H1 3085   5.941   1.716   5.284
 1021WAT     H2 3086   5.952   1.863   5.320
 1022WAT      O 3087   6.108   1.769   5.602
 1022WAT     H1 3088   6.045   1.699   5.619
 1022WAT     H2 3089   6.054   1.845   5.581
 1023WAT      O 3090   6.009   3.423   5.324
 1023WAT     H1 3091   6.083   3.395   5.270
 1023WAT     H2 3092   6.035   3.400   5.413
 1024WAT      O 3093   5.925   3.035   5.325
 1024WAT     H1 3094   5.863   3.082   5.380
 1024WAT     H2 3095   5.937   2.951   5.368
 1025WAT      O 3096   6.671   2.440   3.940
 1025WAT     H1 3097   6.663   2.349   3.913
 1025WAT     H2 3098   6.630   2.490   3.869
 1026WAT      O 3099   6.484   2.618   4.128
 1026WAT     H1 3100   6.407   2.570   4.157
 1026WAT     H2 3101   6.549   2.550   4.111
 1027WAT      O 3102   5.886   2.649   4.216
 1027WAT     H1 3103   5.803   2.624   4.256
 1027WAT     H2 3104   5.947   2.656   4.289
 1028WAT      O 3105   6.886   3.059   4.006
 1028WAT     H1 3106   6.840   2.981   4.039
 1028WAT     H2 3107   6.967   3.061   4.057
 1029WAT      O 3108   5.884   3.053   4.235
 1029WAT     H1 3109   5.914   2.964   4.217
 1029WAT     H2 3110   5.958   3.108   4.213
 1030WAT      O 3111   5.727   2.145   3.594
 1030WAT     H1 3112   5.638   2.179   3.584
 1030WAT     H2 3113   5.755   2.125   3.505
 1031WAT      O 3114   5.523   2.405   4.183
 1031WAT     H1 3115   5.580   2.328   4.183
 1031WAT     H2 3116   5.523   2.435   4.092
 1032WAT      O 3117   6.509   3.287   3.968
 1032WAT     H1 3118   6.447   3.333   3.911
 1032WAT     H2 3119   6.594   3.303   3.928
 1033WAT      O 3120   6.428   2.886   4.129
 1033WAT     H1 3121   6.421   2.791   4.113
 1033WAT     H2 3122   6.504   2.895   4.186
 1034WAT      O 3123   5.647   1.946   4.361
 1034WAT     H1 3124   5.629   1.856   4.389
 1034WAT     H2 3125   5.607   2.001   4.429
 1035WAT      O 3126   6.531   2.166   4.151
 1035WAT     H1 3127   6.569   2.079   4.140
 1035WAT     H2 3128   6.521   2.200   4.062
 1036WAT      O 3129   5.944   2.003   3.698
 1036WAT     H1 3130   5.955   2.094   3.728
 1036WAT     H2 3131   5.853   1.999   3.669
 1037WAT      O 3132   5.709   2.196   4.222
 1037WAT     H1 3133   5.777   2.222   4.284
 1037WAT     H2 3134   5.678   2.112   4.255
 1038WAT      O 3135   6.128   2.300   4.131
 1038WAT     H1 3136   6.179   2.350   4.195
 1038WAT     H2 3137   6.182   2.223   4.113
 1039WAT      O 3138   5.957   1.764   4.557
 1039WAT     H1 3139   5.957   1.816   4.477
 1039WAT     H2 3140   5.874   1.717   4.555
 1040WAT      O 3141   6.595   2.776   3.707
 1040WAT     H1 3142   6.534   2.822   3.651
 1040WAT     H2 3143   6.647   2.845   3.749
 1041WAT      O 3144   6.082   2.728   4.375
 1041WAT     H1 3145   6.048   2.791   4.439
 1041WAT     H2 3146   6.099   2.781   4.297
 1042WAT      O 3147   6.933   2.110   4.122
 1042WAT     H1 3148   6.863   2.139   4.180
 1042WAT     H2 3149   6.969   2.191   4.086
 1043WAT      O 3150   5.925   1.935   4.358
 1043WAT     H1 3151   5.959   2.020   4.329
 1043WAT     H2 3152   5.831   1.950   4.370
 1044WAT      O 3153   6.003   2.925   4.557
 1044WAT     H1 3154   6.065   2.993   4.529
 1044WAT     H2 3155   5.917   2.966   4.548
 1045WAT      O 3156   5.532   2.844   3.445
 1045WAT     H1 3157   5.495   2.893   3.372
 1045WAT     H2 3158   5.558   2.911   3.508
 1046WAT      O 3159   6.293   1.684   3.991
 1046WAT     H1 3160   6.324   1.629   3.919
 1046WAT     H2 3161   6.200   1.698   3.972
 1047WAT      O 3162   6.848   3.256   4.220
 1047WAT     H1 3163   6.850   3.216   4.133
 1047WAT     H2 3164   6.793   3.333   4.209
 1048WAT      O 3165   6.978   2.928   3.729
 1048WAT     H1 3166   6.967   2.834   3.741
 1048WAT     H2 3167   6.977   2.964   3.817
 1049WAT      O 3168   6.788   2.746   4.352
 1049WAT     H1 3169   6.830   2.725   4.269
 1049WAT     H2 3170   6.861   2.772   4.410
 1050WAT      O 3171   6.532   2.491   3.664
 1050WAT     H1 3172   6.439   2.484   3.687
 1050WAT     H2 3173   6.547   2.585   3.653
 1051WAT      O 3174   6.531   2.118   3.364
 1051WAT     H1 3175   6.437   2.134   3.372
 1051WAT     H2 3176   6.563   2.190   3.309
 1052WAT      O 3177   6.935   2.647   3.715
 1052WAT     H1 3178   6.873   2.613   3.650
 1052WAT     H2 3179   6.933   2.583   3.785
 1053WAT      O 3180   6.879   2.265   4.456
 1053WAT     H1 3181   6.838   2.347   4.482
 1053WAT     H2 3182   6.806   2.206   4.437
 1054WAT      O 3183   6.093   2.543   3.942
 1054WAT     H1 3184   6.052   2.472   3.893
 1054WAT     H2 3185   6.101   2.509   4.031
 1055WAT      O 3186   6.139   2.912   4.159
 1055WAT     H1 3187   6.110   2.852   4.091
 1055WAT     H2 3188   6.234   2.916   4.148
 1056WAT      O 3189   5.964   2.221   4.320
 1056WAT     H1 3190   6.019   2.232   4.243
 1056WAT     H2 3191   6.015   2.258   4.392
 1057WAT      O 3192   6.948   3.269   4.525
 1057WAT     H1 3193   6.901   3.350   4.506
 1057WAT     H2 3194   6.880   3.204   4.540
 1058WAT      O 3195   6.049   2.886   4.824
 1058WAT     H1 3196   5.959   2.908   4.849
 1058WAT     H2 3197   6.051   2.898   4.729
 1059WAT      O 3198   6.753   2.571   3.415
 1059WAT     H1 3199   6.797   2.487   3.401
 1059WAT     H2 3200   6.824   2.634   3.424
 1060WAT      O 3201   5.931   2.573   4.681
 1060WAT     H1 3202   5.917   2.660   4.718
 1060WAT     H2 3203   5.843   2.539   4.667
 1061WAT      O 3204   6.564   3.065   3.812
 1061WAT     H1 3205   6.608   3.139   3.771
 1061WAT     H2 3206   6.557   3.089   3.904
 1062WAT      O 3207   6.111   3.167   4.902
 1062WAT     H1 3208   6.108   3.208   4.816
 1062WAT     H2 3209   6.095   3.074   4.886
 1063WAT      O 3210   5.763   2.433   3.692
 1063WAT     H1 3211   5.751   2.505   3.631
 1063WAT     H2 3212   5.732   2.356   3.645
 1064WAT      O 3213   5.526   2.750   4.273
 1064WAT     H1 3214   5.534   2.763   4.179
 1064WAT     H2 3215   5.588   2.679   4.292
 1065WAT      O 3216   5.651   2.920   3.914
 1065WAT     H1 3217   5.610   2.934   3.829
 1065WAT     H2 3218   5.740   2.892   3.894
 1066WAT      O 3219   6.633   3.335   4.605
 1066WAT     H1 3220   6.684   3.326   4.685
 1066WAT     H2 3221   6.548   3.369   4.634
 1067WAT      O 3222   6.830   3.363   3.548
 1067WAT     H1 3223   6.814   3.334   3.638
 1067WAT     H2 3224   6.814   3.286   3.494
 1068WAT      O 3225   6.078   3.341   3.725
 1068WAT     H1 3226   6.061   3.250   3.704
 1068WAT     H2 3227   5.993   3.377   3.749
 1069WAT      O 3228   6.801   3.114   3.404
 1069WAT     H1 3229   6.731   3.114   3.338
 1069WAT     H2 3230   6.875   3.072   3.361
 1070WAT      O 3231   6.757   3.277   3.811
 1070WAT     H1 3232   6.803   3.199   3.843
 1070WAT     H2 3233   6.791   3.348   3.866
 1071WAT      O 3234   5.532   2.854   4.527
 1071WAT     H1 3235   5.548   2.807   4.445
 1071WAT     H2 3236   5.579   2.803   4.594
 1072WAT      O 3237   6.009   1.767   4.031
 1072WAT     H1 3238   5.965   1.845   3.998
 1072WAT     H2 3239   6.065   1.799   4.101
 1073WAT      O 3240   6.438   2.054   4.591
 1073WAT     H1 3241   6.392   2.075   4.672
 1073WAT     H2 3242   6.398   1.972   4.561
 1074WAT      O 3243   6.938   2.176   4.704
 1074WAT     H1 3244   6.853   2.146   4.736
 1074WAT     H2 3245   6.922   2.200   4.613
 1075WAT      O 3246   6.648   2.326   4.914
 1075WAT     H1 3247   6.680   2.243   4.880
 1075WAT     H2 3248   6.726   2.378   4.929
 1076WAT      O 3249   6.321   1.729   3.519
 1076WAT     H1 3250   6.258   1.729   3.591
 1076WAT     H2 3251   6.312   1.643   3.479
 1077WAT      O 3252   6.213   1.822   4.217
 1077WAT     H1 3253   6.243   1.912   4.209
 1077WAT     H2 3254   6.268   1.773   4.155
 1078WAT      O 3255   5.988   2.280   3.804
 1078WAT     H1 3256   5.966   2.258   3.894
 1078WAT     H2 3257   5.910   2.323   3.769
 1079WAT      O 3258   6.711   2.280   3.663
 1079WAT     H1 3259   6.651   2.353   3.645
 1079WAT     H2 3260   6.766   2.274   3.585
 1080WAT      O 3261   6.232   2.369   4.870
 1080WAT     H1 3262   6.223   2.275   4.855
 1080WAT     H2 3263   6.317   2.392   4.831
 1081WAT      O 3264   6.572   2.144   3.866
 1081WAT     H1 3265   6.611   2.175   3.785
 1081WAT     H2 3266   6.608   2.056   3.878
 1082WAT      O 3267   5.746   2.011   4.685
 1082WAT     H1 3268   5.706   2.095   4.706
 1082WAT     H2 3269   5.677   1.947   4.705
 1083WAT      O 3270   6.403   2.019   4.992
 1083WAT     H1 3271   6.334   2.000   5.056
 1083WAT     H2 3272   6.477   2.047   5.046
 1084WAT      O 3273   5.476   1.803   4.089
 1084WAT     H1 3274   5.447   1.860   4.160
 1084WAT     H2 3275   5.550   1.755   4.125
 1085WAT      O 3276   5.494   2.197   3.210
 1085WAT     H1 3277   5.486   2.291   3.224
 1085WAT     H2 3278   5.459   2.183   3.122
 1086WAT      O 3279   6.631   2.403   4.276
 1086WAT     H1 3280   6.557   2.454   4.311
 1086WAT     H2 3281   6.591   2.321   4.246
 1087WAT      O 3282   6.274   2.070   4.116
 1087WAT     H1 3283   6.275   2.026   4.032
 1087WAT     H2 3284   6.364   2.103   4.127
 1088WAT      O 3285   5.859   2.059   4.012
 1088WAT     H1 3286   5.825   2.106   4.088
 1088WAT     H2 3287   5.783   2.013   3.976
 1089WAT      O 3288   6.281   2.170   3.416
 1089WAT     H1 3289   6.293   2.166   3.510
 1089WAT     H2 3290   6.242   2.257   3.400
 1090WAT      O 3291   6.677   1.948   4.217
 1090WAT     H1 3292   6.679   1.993   4.302
 1090WAT     H2 3293   6.652   1.858   4.239
 1091WAT      O 3294   6.182   2.402   3.355
 1091WAT     H1 3295   6.125   2.357   3.293
 1091WAT     H2 3296   6.253   2.437   3.302
 1092WAT      O 3297   5.689   2.792   4.743
 1092WAT     H1 3298   5.651   2.728   4.803
 1092WAT     H2 3299   5.721   2.862   4.800
 1093WAT      O 3300   6.304   2.476   4.291
 1093WAT     H1 3301   6.341   2.429   4.366
 1093WAT     H2 3302   6.285   2.564   4.325
 1094WAT      O 3303   5.591   1.951   3.904
 1094WAT     H1 3304   5.562   1.914   3.988
 1094WAT     H2 3305   5.585   1.878   3.843
 1095WAT      O 3306   6.083   2.380   4.523
 1095WAT     H1 3307   6.053   2.468   4.545
 1095WAT     H2 3308   6.179   2.386   4.527
 1096WAT      O 3309   5.936   2.801   3.583
 1096WAT     H1 3310   5.859   2.747   3.567
 1096WAT     H2 3311   6.009   2.749   3.549
 1097WAT      O 3312   6.558   1.840   3.576
 1097WAT     H1 3313   6.477   1.790   3.569
 1097WAT     H2 3314   6.539   1.924   3.535
 1098WAT      O 3315   6.550   2.708   4.751
 1098WAT     H1 3316   6.544   2.616   4.725
 1098WAT     H2 3317   6.487   2.718   4.822
 1099WAT      O 3318   6.830   2.277   3.406
 1099WAT     H1 3319   6.919   2.308   3.388
 1099WAT     H2 3320   6.827   2.190   3.367
 1100WAT      O 3321   5.941   2.768   3.946
 1100WAT     H1 3322   5.992   2.688   3.941
 1100WAT     H2 3323   5.895   2.762   4.031
 1101WAT      O 3324   6.429   2.895   3.474
 1101WAT     H1 3325   6.463   2.969   3.424
 1101WAT     H2 3326   6.346   2.926   3.510
 1102WAT      O 3327   5.689   2.465   4.638
 1102WAT     H1 3328   5.653   2.531   4.696
 1102WAT     H2 3329   5.660   2.381   4.675
 1103WAT      O 3330   6.009   2.510   4.926
 1103WAT     H1 3331   5.979   2.525   4.836
 1103WAT     H2 3332   6.086   2.454   4.917
 1104WAT      O 3333   6.543   2.990   4.726
 1104WAT     H1 3334   6.545   2.897   4.704
 1104WAT     H2 3335   6.473   2.999   4.790
 1105WAT      O 3336   6.718   2.827   4.010
 1105WAT     H1 3337   6.753   2.767   3.944
 1105WAT     H2 3338   6.629   2.794   4.027
 1106WAT      O 3339   6.326   2.903   3.751
 1106WAT     H1 3340   6.395   2.957   3.789
 1106WAT     H2 3341   6.248   2.957   3.754
 1107WAT      O 3342   5.540   2.464   3.300
 1107WAT     H1 3343   5.627   2.493   3.328
 1107WAT     H2 3344   5.491   2.546   3.289
 1108WAT      O 3345   6.256   2.603   3.712
 1108WAT     H1 3346   6.302   2.684   3.735
 1108WAT     H2 3347   6.221   2.571   3.795
 1109WAT      O 3348   6.487   3.154   4.435
 1109WAT     H1 3349   6.551   3.175   4.503
 1109WAT     H2 3350   6.523   3.078   4.390
 1110WAT      O 3351   5.847   1.638   3.759
 1110WAT     H1 3352   5.834   1.637   3.854
 1110WAT     H2 3353   5.764   1.671   3.724
 1111WAT      O 3354   6.614   2.955   4.307
 1111WAT     H1 3355   6.678   2.884   4.318
 1111WAT     H2 3356   6.667   3.033   4.289
 1112WAT      O 3357   6.792   3.034   4.627
 1112WAT     H1 3358   6.825   3.093   4.695
 1112WAT     H2 3359   6.700   3.021   4.650
 1113WAT      O 3360   5.577   3.386   3.357
 1113WAT     H1 3361   5.613   3.446   3.291
 1113WAT     H2 3362   5.563   3.440   3.434
 1114WAT      O 3363   5.547   1.813   4.705
 1114WAT     H1 3364   5.475   1.833   4.766
 1114WAT     H2 3365   5.589   1.736   4.743
 1115WAT      O 3366   5.575   3.212   4.804
 1115WAT     H1 3367   5.586   3.118   4.790
 1115WAT     H2 3368   5.510   3.239   4.739
 1116WAT      O 3369   6.374   3.039   4.944
 1116WAT     H1 3370   6.342   2.967   4.999
 1116WAT     H2 3371   6.307   3.107   4.951
 1117WAT      O 3372   6.179   3.124   3.438
 1117WAT     H1 3373   6.178   3.197   3.377
 1117WAT     H2 3374   6.087   3.099   3.448
 1118WAT      O 3375   5.739   2.646   3.513
 1118WAT     H1 3376   5.678   2.720   3.514
 1118WAT     H2 3377   5.786   2.655   3.430
 1119WAT      O 3378   6.696   2.063   4.480
 1119WAT     H1 3379   6.733   1.981   4.513
 1119WAT     H2 3380   6.610   2.069   4.522
 1120WAT      O 3381   6.477   3.130   3.305
 1120WAT     H1 3382   6.487   3.110   3.212
 1120WAT     H2 3383   6.387   3.105   3.325
 1121WAT      O 3384   6.229   2.186   3.703
 1121WAT     H1 3385   6.159   2.233   3.747
 1121WAT     H2 3386   6.258   2.120   3.766
 1122WAT      O 3387   6.392   2.328   4.503
 1122WAT     H1 3388   6.442   2.376   4.569
 1122WAT     H2 3389   6.406   2.236   4.524
 1123WAT      O 3390   6.633   1.859   3.847
 1123WAT     H1 3391   6.620   1.860   3.752
 1123WAT     H2 3392   6.727   1.863   3.859
 1124WAT      O 3393   6.341   3.382   3.774
 1124WAT     H1 3394   6.367   3.378   3.682
 1124WAT     H2 3395   6.246   3.369   3.773
 1125WAT      O 3396   6.050   2.017   3.440
 1125WAT     H1 3397   6.135   2.061   3.434
 1125WAT     H2 3398   6.013   2.048   3.523
 1126WAT      O 3399   6.942   2.474   3.932
 1126WAT     H1 3400   6.848   2.476   3.949
 1126WAT     H2 3401   6.973   2.395   3.976
 1127WAT      O 3402   5.940   2.642   3.288
 1127WAT     H1 3403   6.016   2.631   3.344
 1127WAT     H2 3404   5.947   2.573   3.223
 1128WAT      O 3405   5.809   2.386   3.356
 1128WAT     H1 3406   5.817   2.291   3.367
 1128WAT     H2 3407   5.898   2.419   3.367
 1129WAT      O 3408   5.889   3.400   4.066
 1129WAT     H1 3409   5.963   3.346   4.093
 1129WAT     H2 3410   5.928   3.487   4.052
 1130WAT      O 3411   5.578   3.007   3.654
 1130WAT     H1 3412   5.485   3.031   3.653
 1130WAT     H2 3413   5.624   3.090   3.642
 1131WAT      O 3414   5.790   3.319   4.985
 1131WAT     H1 3415   5.870   3.351   5.027
 1131WAT     H2 3416   5.738   3.283   5.057
 1132WAT      O 3417   6.200   3.318   3.249
 1132WAT     H1 3418   6.280   3.347   3.203
 1132WAT     H2 3419   6.148   3.275   3.181
 1133WAT      O 3420   6.674   2.930   4.980
 1133WAT     H1 3421   6.613   2.932   4.906
 1133WAT     H2 3422   6.643   2.857   5.034
 1134WAT      O 3423   6.817   3.303   4.841
 1134WAT     H1 3424   6.912   3.294   4.836
 1134WAT     H2 3425   6.802   3.369   4.908
 1135WAT      O 3426   5.562   2.568   4.880
 1135WAT     H1 3427   5.612   2.510   4.937
 1135WAT     H2 3428   5.488   2.596   4.933
 1136WAT      O 3429   6.252   2.840   3.235
 1136WAT     H1 3430   6.242   2.778   3.308
 1136WAT     H2 3431   6.235   2.787   3.157
 1137WAT      O 3432   6.267   2.708   4.833
 1137WAT     H1 3433   6.191   2.765   4.825
 1137WAT     H2 3434   6.285   2.679   4.744
 1138WAT      O 3435   6.576   2.746   3.296
 1138WAT     H1 3436   6.521   2.791   3.360
 1138WAT     H2 3437   6.638   2.696   3.348
 1139WAT      O 3438   5.765   2.382   4.969
 1139WAT     H1 3439   5.769   2.352   5.060
 1139WAT     H2 3440   5.851   2.422   4.953
 1140WAT      O 3441   6.143   2.642   3.485
 1140WAT     H1 3442   6.185   2.625   3.569
 1140WAT     H2 3443   6.155   2.561   3.436
 1141WAT      O 3444   5.959   2.240   4.766
 1141WAT     H1 3445   5.906   2.191   4.703
 1141WAT     H2 3446   6.026   2.283   4.712
 1142WAT      O 3447   6.394   2.544   3.210
 1142WAT     H1 3448   6.446   2.473   3.173
 1142WAT     H2 3449   6.459   2.608   3.240
 1143WAT      O 3450   6.849   2.687   4.742
 1143WAT     H1 3451   6.890   2.702   4.827
 1143WAT     H2 3452   6.755   2.699   4.759
 1144WAT      O 3453   6.896   2.421   4.943
 1144WAT     H1 3454   6.954   2.345   4.934
 1144WAT     H2 3455   6.914   2.474   4.865
 1145WAT      O 3456   6.008   1.937   4.774
 1145WAT     H1 3457   5.998   1.875   4.701
 1145WAT     H2 3458   5.950   2.009   4.751
 1146WAT      O 3459   6.284   1.792   4.477
 1146WAT     H1 3460   6.240   1.794   4.393
 1146WAT     H2 3461   6.221   1.752   4.537
 1147WAT      O 3462   6.325   2.682   4.539
 1147WAT     H1 3463   6.367   2.766   4.522
 1147WAT     H2 3464   6.233   2.696   4.516
 1148WAT      O 3465   6.559   2.455   4.678
 1148WAT     H1 3466   6.571   2.395   4.752
 1148WAT     H2 3467   6.645   2.459   4.636
 1149WAT      O 3468   6.793   2.510   4.535
 1149WAT     H1 3469   6.740   2.563   4.475
 1149WAT     H2 3470   6.827   2.574   4.598
 1150WAT      O 3471   6.032   2.249   3.180
 1150WAT     H1 3472   6.012   2.163   3.216
 1150WAT     H2 3473   6.015   2.241   3.086
 1151WAT      O 3474   6.110   3.312   4.651
 1151WAT     H1 3475   6.056   3.385   4.619
 1151WAT     H2 3476   6.135   3.265   4.572
 1152WAT      O 3477   6.235   2.109   4.803
 1152WAT     H1 3478   6.294   2.078   4.872
 1152WAT     H2 3479   6.154   2.062   4.819
 1153WAT      O 3480   6.717   2.071   4.827
 1153WAT     H1 3481   6.648   2.005   4.820
 1153WAT     H2 3482   6.789   2.026   4.871
 1154WAT      O 3483   6.780   1.730   3.433
 1154WAT     H1 3484   6.808   1.646   3.468
 1154WAT     H2 3485   6.703   1.754   3.484
 1155WAT      O 3486   5.912   1.959   3.179
 1155WAT     H1 3487   5.943   1.960   3.088
 1155WAT     H2 3488   5.986   1.924   3.228
 1156WAT      O 3489   6.396   3.436   4.677
 1156WAT     H1 3490   6.388   3.526   4.707
 1156WAT     H2 3491   6.306   3.404   4.674
 1157WAT      O 3492   6.234   1.854   3.277
 1157WAT     H1 3493   6.199   1.786   3.219
 1157WAT     H2 3494   6.254   1.807   3.359
 1158WAT      O 3495   6.451   3.352   3.439
 1158WAT     H1 3496   6.540   3.386   3.441
 1158WAT     H2 3497   6.454   3.280   3.376
 1159WAT      O 3498   5.815   2.890   3.262
 1159WAT     H1 3499   5.858   2.944   3.327
 1159WAT     H2 3500   5.863   2.807   3.263
 1160WAT      O 3501   5.536   3.169   4.007
 1160WAT     H1 3502   5.569   3.082   3.984
 1160WAT     H2 3503   5.579   3.189   4.090
 1161WAT      O 3504   5.996   3.002   3.773
 1161WAT     H1 3505   5.966   2.989   3.863
 1161WAT     H2 3506   5.985   2.916   3.732
 1162WAT      O 3507   5.585   3.255   4.281
 1162WAT     H1 3508   5.541   3.273   4.364
 1162WAT     H2 3509   5.642   3.331   4.267
 1163WAT      O 3510   5.568   2.506   3.917
 1163WAT     H1 3511   5.503   2.480   3.852
 1163WAT     H2 3512   5.652   2.496   3.872
 1164WAT      O 3513   6.863   1.986   3.339
 1164WAT     H1 3514   6.905   1.967   3.255
 1164WAT     H2 3515   6.832   1.901   3.370
 1165WAT      O 3516   5.672   2.545   4.371
 1165WAT     H1 3517   5.709   2.536   4.459
 1165WAT     H2 3518   5.615   2.469   4.361
 1166WAT      O 3519   5.627   2.236   4.761
 1166WAT     H1 3520   5.538   2.233   4.795
 1166WAT     H2 3521   5.681   2.256   4.838
 1167WAT      O 3522   5.490   2.227   3.511
 1167WAT     H1 3523   5.399   2.254   3.494
 1167WAT     H2 3524   5.538   2.255   3.433
 1168WAT      O 3525   5.744   2.133   3.302
 1168WAT     H1 3526   5.815   2.091   3.253
 1168WAT     H2 3527   5.672   2.140   3.239
 1169WAT      O 3528   5.709   1.739   3.206
 1169WAT     H1 3529   5.781   1.793   3.238
 1169WAT     H2 3530   5.736   1.711   3.118
 1170WAT      O 3531   5.677   1.664   4.196
 1170WAT     H1 3532   5.742   1.609   4.152
 1170WAT     H2 3533   5.720   1.689   4.278
 1171WAT      O 3534   5.653   1.679   4.470
 1171WAT     H1 3535   5.618   1.725   4.547
 1171WAT     H2 3536   5.620   1.590   4.479
 1172WAT      O 3537   5.813   2.996   4.887
 1172WAT     H1 3538   5.809   2.959   4.975
 1172WAT     H2 3539   5.827   3.090   4.901
 1173WAT      O 3540   6.184   3.152   4.447
 1173WAT     H1 3541   6.159   3.179   4.358
 1173WAT     H2 3542   6.278   3.169   4.453
 1174WAT      O 3543   6.404   1.798   4.823
 1174WAT     H1 3544   6.398   1.857   4.898
 1174WAT     H2 3545   6.498   1.788   4.808
 1175WAT      O 3546   6.668   1.764   4.787
 1175WAT     H1 3547   6.729   1.796   4.720
 1175WAT     H2 3548   6.722   1.715   4.849
 1176WAT      O 3549   5.720   1.632   4.798
 1176WAT     H1 3550   5.775   1.614   4.722
 1176WAT     H2 3551   5.727   1.553   4.852
 1177WAT      O 3552   5.797   3.291   4.599
 1177WAT     H1 3553   5.738   3.278   4.673
 1177WAT     H2 3554   5.797   3.207   4.552
 1178WAT      O 3555   6.742   1.620   4.419
 1178WAT     H1 3556   6.654   1.654   4.399
 1178WAT     H2 3557   6.731   1.573   4.502
 1179WAT      O 3558   6.833   1.841   4.558
 1179WAT     H1 3559   6.800   1.760   4.520
 1179WAT     H2 3560   6.927   1.837   4.545
 1180WAT      O 3561   5.760   3.028   4.494
 1180WAT     H1 3562   5.688   2.966   4.487
 1180WAT     H2 3563   5.767   3.067   4.407
 1181WAT      O 3564   6.121   3.249   4.173
 1181WAT     H1 3565   6.173   3.188   4.120
 1181WAT     H2 3566   6.186   3.299   4.222
 1182WAT      O 3567   6.395   3.338   4.255
 1182WAT     H1 3568   6.424   3.313   4.168
 1182WAT     H2 3569   6.446   3.283   4.314
 1183WAT      O 3570   6.517   1.712   4.313
 1183WAT     H1 3571   6.438   1.759   4.341
 1183WAT     H2 3572   6.487   1.622   4.302
 1184WAT      O 3573   5.589   3.359   3.815
 1184WAT     H1 3574   5.572   3.296   3.885
 1184WAT     H2 3575   5.502   3.380   3.780
 1185WAT      O 3576   5.651   1.742   3.565
 1185WAT     H1 3577   5.727   1.754   3.508
 1185WAT     H2 3578   5.605   1.826   3.561
 1186WAT      O 3579   6.305   1.954   3.864
 1186WAT     H1 3580   6.224   1.916   3.830
 1186WAT     H2 3581   6.356   1.878   3.895
 1187WAT      O 3582   6.755   1.620   3.988
 1187WAT     H1 3583   6.816   1.677   4.036
 1187WAT     H2 3584   6.681   1.677   3.966
 1188WAT      O 3585   5.749   3.229   3.559
 1188WAT     H1 3586   5.697   3.267   3.489
 1188WAT     H2 3587   5.742   3.291   3.632
 1189WAT      O 3588   5.888   1.795   3.419
 1189WAT     H1 3589   5.941   1.716   3.406
 1189WAT     H2 3590   5.952   1.863   3.443
 1190WAT      O 3591   6.108   1.769   3.725
 1190WAT     H1 3592   6.045   1.699   3.741
 1190WAT     H2 3593   6.054   1.845   3.703
 1191WAT      O 3594   6.402   3.430   4.992
 1191WAT     H1 3595   6.494   3.407   4.996
 1191WAT     H2 3596   6.400   3.513   4.944
 1192WAT      O 3597   6.120   1.697   4.968
 1192WAT     H1 3598   6.092   1.747   4.892
 1192WAT     H2 3599   6.158   1.617   4.932
 1193WAT      O 3600   6.009   3.423   3.447
 1193WAT     H1 3601   6.083   3.395   3.392
 1193WAT     H2 3602   6.035   3.400   3.536
 1194WAT      O 3603   5.925   3.035   3.447
 1194WAT     H1 3604   5.863   3.082   3.502
 1194WAT     H2 3605   5.937   2.951   3.491
 1195WAT      O 3606   6.780   1.638   5.026
 1195WAT     H1 3607   6.769   1.670   5.116
 1195WAT     H2 3608   6.862   1.678   4.996
 1196WAT      O 3609   6.671   2.440   2.062
 1196WAT     H1 3610   6.663   2.349   2.035
 1196WAT     H2 3611   6.630   2.490   1.992
 1197WAT      O 3612   6.484   2.618   2.251
 1197WAT     H1 3613   6.407   2.570   2.280
 1197WAT     H2 3614   6.549   2.550   2.233
 1198WAT      O 3615   5.886   2.649   2.338
 1198WAT     H1 3616   5.803   2.624   2.378
 1198WAT     H2 3617   5.947   2.656   2.412
 1199WAT      O 3618   6.886   3.059   2.129
 1199WAT     H1 3619   6.840   2.981   2.161
 1199WAT     H2 3620   6.967   3.061   2.179
 1200WAT      O 3621   5.884   3.053   2.358
 1200WAT     H1 3622   5.914   2.964   2.340
 1200WAT     H2 3623   5.958   3.108   2.335
 1201WAT      O 3624   5.727   2.145   1.717
 1201WAT     H1 3625   5.638   2.179   1.707
 1201WAT     H2 3626   5.755   2.125   1.628
 1202WAT      O 3627   5.523   2.405   2.305
 1202WAT     H1 3628   5.580   2.328   2.305
 1202WAT     H2 3629   5.523   2.435   2.214
 1203WAT      O 3630   6.509   3.287   2.091
 1203WAT     H1 3631   6.447   3.333   2.034
 1203WAT     H2 3632   6.594   3.303   2.050
 1204WAT      O 3633   6.428   2.886   2.251
 1204WAT     H1 3634   6.421   2.791   2.235
 1204WAT     H2 3635   6.504   2.895   2.308
 1205WAT      O 3636   5.647   1.946   2.484
 1205WAT     H1 3637   5.629   1.856   2.512
 1205WAT     H2 3638   5.607   2.001   2.551
 1206WAT      O 3639   6.531   2.166   2.274
 1206WAT     H1 3640   6.569   2.079   2.263
 1206WAT     H2 3641   6.521   2.200   2.185
 1207WAT      O 3642   5.944   2.003   1.820
 1207WAT     H1 3643   5.955   2.094   1.851
 1207WAT     H2 3644   5.853   1.999   1.791
 1208WAT      O 3645   5.709   2.196   2.345
 1208WAT     H1 3646   5.777   2.222   2.407
 1208WAT     H2 3647   5.678   2.112   2.378
 1209WAT      O 3648   6.128   2.300   2.253
 1209WAT     H1 3649   6.179   2.350   2.317
 1209WAT     H2 3650   6.182   2.223   2.236
 1210WAT      O 3651   5.957   1.764   2.680
 1210WAT     H1 3652   5.957   1.816   2.599
 1210WAT     H2 3653   5.874   1.717   2.678
 1211WAT      O 3654   6.595   2.776   1.830
 1211WAT     H1 3655   6.534   2.822   1.774
 1211WAT     H2 3656   6.647   2.845   1.872
 1212WAT      O 3657   6.082   2.728   2.498
 1212WAT     H1 3658   6.048   2.791   2.562
 1212WAT     H2 3659   6.099   2.781   2.420
 1213WAT      O 3660   6.933   2.110   2.245
 1213WAT     H1 3661   6.863   2.139   2.303
 1213WAT     H2 3662   6.969   2.191   2.208
 1214WAT      O 3663   5.925   1.935   2.481
 1214WAT     H1 3664   5.959   2.020   2.451
 1214WAT     H2 3665   5.831   1.950   2.492
 1215WAT      O 3666   6.003   2.925   2.679
 1215WAT     H1 3667   6.065   2.993   2.651
 1215WAT     H2 3668   5.917   2.966   2.670
 1216WAT      O 3669   5.532   2.844   1.567
 1216WAT     H1 3670   5.495   2.893   1.494
 1216WAT     H2 3671   5.558   2.911   1.630
 1217WAT      O 3672   6.293   1.684   2.113
 1217WAT     H1 3673   6.324   1.629   2.042
 1217WAT     H2 3674   6.200   1.698   2.095
 1218WAT      O 3675   6.848   3.256   2.342
 1218WAT     H1 3676   6.850   3.216   2.255
 1218WAT     H2 3677   6.793   3.333   2.332
 1219WAT      O 3678   6.978   2.928   1.851
 1219WAT     H1 3679   6.967   2.834   1.864
 1219WAT     H2 3680   6.977   2.964   1.940
 1220WAT      O 3681   6.788   2.746   2.475
 1220WAT     H1 3682   6.830   2.725   2.392
 1220WAT     H2 3683   6.861   2.772   2.532
 1221WAT      O 3684   6.532   2.491   1.787
 1221WAT     H1 3685   6.439   2.484   1.810
 1221WAT     H2 3686   6.547   2.585   1.775
 1222WAT      O 3687   6.531   2.118   1.486
 1222WAT     H1 3688   6.437   2.134   1.495
 1222WAT     H2 3689   6.563   2.190   1.432
 1223WAT      O 3690   6.935   2.647   1.837
 1223WAT     H1 3691   6.873   2.613   1.772
 1223WAT     H2 3692   6.933   2.583   1.908
 1224WAT      O 3693   6.879   2.265   2.579
 1224WAT     H1 3694   6.838   2.347   2.604
 1224WAT     H2 3695   6.806   2.206   2.560
 1225WAT      O 3696   6.093   2.543   2.065
 1225WAT     H1 3697   6.052   2.472   2.015
 1225WAT     H2 3698   6.101   2.509   2.154
 1226WAT      O 3699   6.139   2.912   2.281
 1226WAT     H1 3700   6.110   2.852   2.213
 1226WAT     H2 3701   6.234   2.916   2.270
 1227WAT      O 3702   5.964   2.221   2.443
 1227WAT     H1 3703   6.019   2.232   2.365
 1227WAT     H2 3704   6.015   2.258   2.514
 1228WAT      O 3705   6.948   3.269   2.648
 1228WAT     H1 3706   6.901   3.350   2.628
 1228WAT     H2 3707   6.880   3.204   2.663
 1229WAT      O 3708   6.049   2.886   2.946
 1229WAT     H1 3709   5.959   2.908   2.971
 1229WAT     H2 3710   6.051   2.898   2.852
 1230WAT      O 3711   6.753   2.571   1.538
 1230WAT     H1 3712   6.797   2.487   1.523
 1230WAT     H2 3713   6.824   2.634   1.546
 1231WAT      O 3714   5.931   2.573   2.804
 1231WAT     H1 3715   5.917   2.660   2.841
 1231WAT     H2 3716   5.843   2.539   2.789
 1232WAT      O 3717   6.564   3.065   1.935
 1232WAT     H1 3718   6.608   3.139   1.893
 1232WAT     H2 3719   6.557   3.089   2.027
 1233WAT      O 3720   6.111   3.167   3.025
 1233WAT     H1 3721   6.108   3.208   2.938
 1233WAT     H2 3722   6.095   3.074   3.009
 1234WAT      O 3723   5.763   2.433   1.815
 1234WAT     H1 3724   5.751   2.505   1.754
 1234WAT     H2 3725   5.732   2.356   1.767
 1235WAT      O 3726   5.526   2.750   2.396
 1235WAT     H1 3727   5.534   2.763   2.301
 1235WAT     H2 3728   5.588   2.679   2.415
 1236WAT      O 3729   5.651   2.920   2.037
 1236WAT     H1 3730   5.610   2.934   1.951
 1236WAT     H2 3731   5.740   2.892   2.016
 1237WAT      O 3732   6.633   3.335   2.727
 1237WAT     H1 3733   6.684   3.326   2.808
 1237WAT     H2 3734   6.548   3.369   2.757
 1238WAT      O 3735   6.830   3.363   1.670
 1238WAT     H1 3736   6.814   3.334   1.760
 1238WAT     H2 3737   6.814   3.286   1.617
 1239WAT      O 3738   6.078   3.341   1.848
 1239WAT     H1 3739   6.061   3.250   1.827
 1239WAT     H2 3740   5.993   3.377   1.872
 1240WAT      O 3741   6.801   3.114   1.526
 1240WAT     H1 3742   6.731   3.114   1.460
 1240WAT     H2 3743   6.875   3.072   1.483
 1241WAT      O 3744   6.757   3.277   1.934
 1241WAT     H1 3745   6.803   3.199   1.965
 1241WAT     H2 3746   6.791   3.348   1.988
 1242WAT      O 3747   5.532   2.854   2.650
 1242WAT     H1 3748   5.548   2.807   2.568
 1242WAT     H2 3749   5.579   2.803   2.716
 1243WAT      O 3750   6.009   1.767   2.153
 1243WAT     H1 3751   5.965   1.845   2.120
 1243WAT     H2 3752   6.065   1.799   2.224
 1244WAT      O 3753   6.438   2.054   2.714
 1244WAT     H1 3754   6.392   2.075   2.795
 1244WAT     H2 3755   6.398   1.972   2.683
 1245WAT      O 3756   6.938   2.176   2.827
 1245WAT     H1 3757   6.853   2.146   2.859
 1245WAT     H2 3758   6.922   2.200   2.735
 1246WAT      O 3759   6.648   2.326   3.037
 1246WAT     H1 3760   6.680   2.243   3.003
 1246WAT     H2 3761   6.726   2.378   3.051
 1247WAT      O 3762   6.321   1.729   1.641
 1247WAT     H1 3763   6.258   1.729   1.714
 1247WAT     H2 3764   6.312   1.643   1.602
 1248WAT      O 3765   6.213   1.822   2.339
 1248WAT     H1 3766   6.243   1.912   2.331
 1248WAT     H2 3767   6.268   1.773   2.278
 1249WAT      O 3768   5.988   2.280   1.926
 1249WAT     H1 3769   5.966   2.258   2.017
 1249WAT     H2 3770   5.910   2.323   1.892
 1250WAT      O 3771   6.711   2.280   1.786
 1250WAT     H1 3772   6.651   2.353   1.768
 1250WAT     H2 3773   6.766   2.274   1.708
 1251WAT      O 3774   6.232   2.369   2.993
 1251WAT     H1 3775   6.223   2.275   2.978
 1251WAT     H2 3776   6.317   2.392   2.953
 1252WAT      O 3777   6.572   2.144   1.989
 1252WAT     H1 3778   6.611   2.175   1.908
 1252WAT     H2 3779   6.608   2.056   2.000
 1253WAT      O 3780   5.746   2.011   2.808
 1253WAT     H1 3781   5.706   2.095   2.829
 1253WAT     H2 3782   5.677   1.947   2.827
 1254WAT      O 3783   6.403   2.019   3.115
 1254WAT     H1 3784   6.334   2.000   3.178
 1254WAT     H2 3785   6.477   2.047   3.168
 1255WAT      O 3786   5.476   1.803   2.211
 1255WAT     H1 3787   5.447   1.860   2.283
 1255WAT     H2 3788   5.550   1.755   2.248
 1256WAT      O 3789   5.494   2.197   1.332
 1256WAT     H1 3790   5.486   2.291   1.346
 1256WAT     H2 3791   5.459   2.183   1.244
 1257WAT      O 3792   6.631   2.403   2.399
 1257WAT     H1 3793   6.557   2.454   2.433
 1257WAT     H2 3794   6.591   2.321   2.368
 1258WAT      O 3795   6.274   2.070   2.239
 1258WAT     H1 3796   6.275   2.026   2.154
 1258WAT     H2 3797   6.364   2.103   2.250
 1259WAT      O 3798   5.859   2.059   2.135
 1259WAT     H1 3799   5.825   2.106   2.211
 1259WAT     H2 3800   5.783   2.013   2.099
 1260WAT      O 3801   6.281   2.170   1.538
 1260WAT     H1 3802   6.293   2.166   1.633
 1260WAT     H2 3803   6.242   2.257   1.523
 1261WAT      O 3804   6.677   1.948   2.340
 1261WAT     H1 3805   6.679   1.993   2.424
 1261WAT     H2 3806   6.652   1.858   2.361
 1262WAT      O 3807   6.182   2.402   1.478
 1262WAT     H1 3808   6.125   2.357   1.415
 1262WAT     H2 3809   6.253   2.437   1.425
 1263WAT      O 3810   5.689   2.792   2.866
 1263WAT     H1 3811   5.651   2.728   2.925
 1263WAT     H2 3812   5.721   2.862   2.923
 1264WAT      O 3813   6.304   2.476   2.414
 1264WAT     H1 3814   6.341   2.429   2.488
 1264WAT     H2 3815   6.285   2.564   2.448
 1265WAT      O 3816   5.591   1.951   2.027
 1265WAT     H1 3817   5.562   1.914   2.110
 1265WAT     H2 3818   5.585   1.878   1.965
 1266WAT      O 3819   6.083   2.380   2.646
 1266WAT     H1 3820   6.053   2.468   2.668
 1266WAT     H2 3821   6.179   2.386   2.649
 1267WAT      O 3822   5.936   2.801   1.705
 1267WAT     H1 3823   5.859   2.747   1.689
 1267WAT     H2 3824   6.009   2.749   1.671
 1268WAT      O 3825   6.558   1.840   1.699
 1268WAT     H1 3826   6.477   1.790   1.691
 1268WAT     H2 3827   6.539   1.924   1.657
 1269WAT      O 3828   6.550   2.708   2.873
 1269WAT     H1 3829   6.544   2.616   2.848
 1269WAT     H2 3830   6.487   2.718   2.945
 1270WAT      O 3831   6.830   2.277   1.528
 1270WAT     H1 3832   6.919   2.308   1.511
 1270WAT     H2 3833   6.827   2.190   1.489
 1271WAT      O 3834   5.941   2.768   2.069
 1271WAT     H1 3835   5.992   2.688   2.064
 1271WAT     H2 3836   5.895   2.762   2.153
 1272WAT      O 3837   6.429   2.895   1.596
 1272WAT     H1 3838   6.463   2.969   1.547
 1272WAT     H2 3839   6.346   2.926   1.633
 1273WAT      O 3840   5.689   2.465   2.760
 1273WAT     H1 3841   5.653   2.531   2.819
 1273WAT     H2 3842   5.660   2.381   2.797
 1274WAT      O 3843   6.009   2.510   3.049
 1274WAT     H1 3844   5.979   2.525   2.959
 1274WAT     H2 3845   6.086   2.454   3.039
 1275WAT      O 3846   6.543   2.990   2.848
 1275WAT     H1 3847   6.545   2.897   2.826
 1275WAT     H2 3848   6.473   2.999   2.912
 1276WAT      O 3849   6.718   2.827   2.133
 1276WAT     H1 3850   6.753   2.767   2.067
 1276WAT     H2 3851   6.629   2.794   2.150
 1277WAT      O 3852   6.326   2.903   1.873
 1277WAT     H1 3853   6.395   2.957   1.912
 1277WAT     H2 3854   6.248   2.957   1.877
 1278WAT      O 3855   5.540   2.464   1.423
 1278WAT     H1 3856   5.627   2.493   1.451
 1278WAT     H2 3857   5.491   2.546   1.411
 1279WAT      O 3858   6.256   2.603   1.835
 1279WAT     H1 3859   6.302   2.684   1.857
 1279WAT     H2 3860   6.221   2.571   1.918
 1280WAT      O 3861   6.487   3.154   2.558
 1280WAT     H1 3862   6.551   3.175   2.625
 1280WAT     H2 3863   6.523   3.078   2.512
 1281WAT      O 3864   5.847   1.638   1.882
 1281WAT     H1 3865   5.834   1.637   1.977
 1281WAT     H2 3866   5.764   1.671   1.847
 1282WAT      O 3867   6.614   2.955   2.429
 1282WAT     H1 3868   6.678   2.884   2.441
 1282WAT     H2 3869   6.667   3.033   2.411
 1283WAT      O 3870   6.792   3.034   2.750
 1283WAT     H1 3871   6.825   3.093   2.818
 1283WAT     H2 3872   6.700   3.021   2.773
 1284WAT      O 3873   5.577   3.386   1.479
 1284WAT     H1 3874   5.613   3.446   1.414
 1284WAT     H2 3875   5.563   3.440   1.557
 1285WAT      O 3876   5.547   1.813   2.828
 1285WAT     H1 3877   5.475   1.833   2.888
 1285WAT     H2 3878   5.589   1.736   2.865
 1286WAT      O 3879   5.575   3.212   2.927
 1286WAT     H1 3880   5.586   3.118   2.913
 1286WAT     H2 3881   5.510   3.239   2.862
 1287WAT      O 3882   6.374   3.039   3.067
 1287WAT     H1 3883   6.342   2.967   3.121
 1287WAT     H2 3884   6.307   3.107   3.074
 1288WAT      O 3885   6.179   3.124   1.561
 1288WAT     H1 3886   6.178   3.197   1.499
 1288WAT     H2 3887   6.087   3.099   1.570
 1289WAT      O 3888   5.739   2.646   1.635
 1289WAT     H1 3889   5.678   2.720   1.636
 1289WAT     H2 3890   5.786   2.655   1.553
 1290WAT      O 3891   6.696   2.063   2.603
 1290WAT     H1 3892   6.733   1.981   2.636
 1290WAT     H2 3893   6.610   2.069   2.645
 1291WAT      O 3894   6.477   3.130   1.427
 1291WAT     H1 3895   6.487   3.110   1.334
 1291WAT     H2 3896   6.387   3.105   1.448
 1292WAT      O 3897   6.229   2.186   1.825
 1292WAT     H1 3898   6.159   2.233   1.870
 1292WAT     H2 3899   6.258   2.120   1.889
 1293WAT      O 3900   6.392   2.328   2.625
 1293WAT     H1 3901   6.442   2.376   2.692
 1293WAT     H2 3902   6.406   2.236   2.646
 1294WAT      O 3903   6.633   1.859   1.969
 1294WAT     H1 3904   6.620   1.860   1.874
 1294WAT     H2 3905   6.727   1.863   1.981
 1295WAT      O 3906   6.341   3.382   1.897
 1295WAT     H1 3907   6.367   3.378   1.804
 1295WAT     H2 3908   6.246   3.369   1.896
 1296WAT      O 3909   6.050   2.017   1.563
 1296WAT     H1 3910   6.135   2.061   1.556
 1296WAT     H2 3911   6.013   2.048   1.646
 1297WAT      O 3912   6.942   2.474   2.054
 1297WAT     H1 3913   6.848   2.476   2.072
 1297WAT     H2 3914   6.973   2.395   2.099
 1298WAT      O 3915   5.940   2.642   1.410
 1298WAT     H1 3916   6.016   2.631   1.467
 1298WAT     H2 3917   5.947   2.573   1.345
 1299WAT      O 3918   5.809   2.386   1.479
 1299WAT     H1 3919   5.817   2.291   1.490
 1299WAT     H2 3920   5.898   2.419   1.489
 1300WAT      O 3921   5.889   3.400   2.189
 1300WAT     H1 3922   5.963   3.346   2.216
 1300WAT     H2 3923   5.928   3.487   2.175
 1301WAT      O 3924   5.578   3.007   1.776
 1301WAT     H1 3925   5.485   3.031   1.775
 1301WAT     H2 3926   5.624   3.090   1.764
 1302WAT      O 3927   5.790   3.319   3.108
 1302WAT     H1 3928   5.870   3.351   3.149
 1302WAT     H2 3929   5.738   3.283   3.180
 1303WAT      O 3930   6.200   3.318   1.371
 1303WAT     H1 3931   6.280   3.347   1.326
 1303WAT     H2 3932   6.148   3.275   1.303
 1304WAT      O 3933   6.674   2.930   3.103
 1304WAT     H1 3934   6.613   2.932   3.029
 1304WAT     H2 3935   6.643   2.857   3.156
 1305WAT      O 3936   6.817   3.303   2.964
 1305WAT     H1 3937   6.912   3.294   2.959
 1305WAT     H2 3938   6.802   3.369   3.031
 1306WAT      O 3939   5.562   2.568   3.002
 1306WAT     H1 3940   5.612   2.510   3.059
 1306WAT     H2 3941   5.488   2.596   3.056
 1307WAT      O 3942   6.252   2.840   1.358
 1307WAT     H1 3943   6.242   2.778   1.430
 1307WAT     H2 3944   6.235   2.787   1.279
 1308WAT      O 3945   6.267   2.708   2.956
 1308WAT     H1 3946   6.191   2.765   2.947
 1308WAT     H2 3947   6.285   2.679   2.866
 1309WAT      O 3948   6.576   2.746   1.418
 1309WAT     H1 3949   6.521   2.791   1.483
 1309WAT     H2 3950   6.638   2.696   1.470
 1310WAT      O 3951   5.765   2.382   3.092
 1310WAT     H1 3952   5.769   2.352   3.183
 1310WAT     H2 3953   5.851   2.422   3.076
 1311WAT      O 3954   6.143   2.642   1.608
 1311WAT     H1 3955   6.185   2.625   1.692
 1311WAT     H2 3956   6.155   2.561   1.558
 1312WAT      O 3957   5.959   2.240   2.888
 1312WAT     H1 3958   5.906   2.191   2.826
 1312WAT     H2 3959   6.026   2.283   2.835
 1313WAT      O 3960   6.394   2.544   1.333
 1313WAT     H1 3961   6.446   2.473   1.296
 1313WAT     H2 3962   6.459   2.608   1.363
 1314WAT      O 3963   6.849   2.687   2.865
 1314WAT     H1 3964   6.890   2.702   2.950
 1314WAT     H2 3965   6.755   2.699   2.881
 1315WAT      O 3966   6.896   2.421   3.065
 1315WAT     H1 3967   6.954   2.345   3.056
 1315WAT     H2 3968   6.914   2.474   2.988
 1316WAT      O 3969   6.008   1.937   2.896
 1316WAT     H1 3970   5.998   1.875   2.824
 1316WAT     H2 3971   5.950   2.009   2.874
 1317WAT      O 3972   6.284   1.792   2.600
 1317WAT     H1 3973   6.240   1.794   2.515
 1317WAT     H2 3974   6.221   1.752   2.659
 1318WAT      O 3975   6.325   2.682   2.662
 1318WAT     H1 3976   6.367   2.766   2.645
 1318WAT     H2 3977   6.233   2.696   2.639
 1319WAT      O 3978   6.559   2.455   2.800
 1319WAT     H1 3979   6.571   2.395   2.874
 1319WAT     H2 3980   6.645   2.459   2.758
 1320WAT      O 3981   6.793   2.510   2.658
 1320WAT     H1 3982   6.740   2.563   2.597
 1320WAT     H2 3983   6.827   2.574   2.721
 1321WAT      O 3984   6.032   2.249   1.302
 1321WAT     H1 3985   6.012   2.163   1.338
 1321WAT     H2 3986   6.015   2.241   1.209
 1322WAT      O 3987   6.110   3.312   2.773
 1322WAT     H1 3988   6.056   3.385   2.741
 1322WAT     H2 3989   6.135   3.265   2.694
 1323WAT      O 3990   6.235   2.109   2.926
 1323WAT     H1 3991   6.294   2.078   2.995
 1323WAT     H2 3992   6.154   2.062   2.942
 1324WAT      O 3993   6.717   2.071   2.949
 1324WAT     H1 3994   6.648   2.005   2.943
 1324WAT     H2 3995   6.789   2.026   2.994
 1325WAT      O 3996   6.780   1.730   1.555
 1325WAT     H1 3997   6.808   1.646   1.591
 1325WAT     H2 3998   6.703   1.754   1.607
 1326WAT      O 3999   5.912   1.959   1.301
 1326WAT     H1 4000   5.943   1.960   1.210
 1326WAT     H2 4001   5.986   1.924   1.351
 1327WAT      O 4002   6.396   3.436   2.799
 1327WAT     H1 4003   6.388   3.526   2.830
 1327WAT     H2 4004   6.306   3.404   2.796
 1328WAT      O 4005   6.234   1.854   1.400
 1328WAT     H1 4006   6.199   1.786   1.342
 1328WAT     H2 4007   6.254   1.807   1.481
 1329WAT      O 4008   6.451   3.352   1.562
 1329WAT     H1 4009   6.540   3.386   1.564
 1329WAT     H2 4010   6.454   3.280   1.499
 1330WAT      O 4011   5.815   2.890   1.384
 1330WAT     H1 4012   5.858   2.944   1.450
 1330WAT     H2 4013   5.863   2.807   1.385
 1331WAT      O 4014   5.536   3.169   2.130
 1331WAT     H1 4015   5.569   3.082   2.106
 1331WAT     H2 4016   5.579   3.189   2.213
 1332WAT      O 4017   5.996   3.002   1.896
 1332WAT     H1 4018   5.966   2.989   1.986
 1332WAT     H2 4019   5.985   2.916   1.855
 1333WAT      O 4020   5.585   3.255   2.403
 1333WAT     H1 4021   5.541   3.273   2.487
 1333WAT     H2 4022   5.642   3.331   2.389
 1334WAT      O 4023   5.568   2.506   2.039
 1334WAT     H1 4024   5.503   2.480   1.975
 1334WAT     H2 4025   5.652   2.496   1.994
 1335WAT      O 4026   6.863   1.986   1.461
 1335WAT     H1 4027   6.905   1.967   1.377
 1335WAT     H2 4028   6.832   1.901   1.493
 1336WAT      O 4029   5.672   2.545   2.493
 1336WAT     H1 4030   5.709   2.536   2.581
 1336WAT     H2 4031   5.615   2.469   2.483
 1337WAT      O 4032   5.627   2.236   2.884
 1337WAT     H1 4033   5.538   2.233   2.918
 1337WAT     H2 4034   5.681   2.256   2.960
 1338WAT      O 4035   5.490   2.227   1.634
 1338WAT     H1 4036   5.399   2.254   1.616
 1338WAT     H2 4037   5.538   2.255   1.556
 1339WAT      O 4038   5.744   2.133   1.424
 1339WAT     H1 4039   5.815   2.091   1.376
 1339WAT     H2 4040   5.672   2.140   1.361
 1340WAT      O 4041   5.709   1.739   1.329
 1340WAT     H1 4042   5.781   1.793   1.360
 1340WAT     H2 4043   5.736   1.711   1.241
 1341WAT      O 4044   5.677   1.664   2.319
 1341WAT     H1 4045   5.742   1.609   2.275
 1341WAT     H2 4046   5.720   1.689   2.401
 1342WAT      O 4047   5.653   1.679   2.593
 1342WAT     H1 4048   5.618   1.725   2.670
 1342WAT     H2 4049   5.620   1.590   2.601
 1343WAT      O 4050   5.813   2.996   3.010
 1343WAT     H1 4051   5.809   2.959   3.098
 1343WAT     H2 4052   5.827   3.090   3.024
 1344WAT      O 4053   6.184   3.152   2.570
 1344WAT     H1 4054   6.159   3.179   2.481
 1344WAT     H2 4055   6.278   3.169   2.575
 1345WAT      O 4056   6.404   1.798   2.945
 1345WAT     H1 4057   6.398   1.857   3.020
 1345WAT     H2 4058   6.498   1.788   2.931
 1346WAT      O 4059   6.668   1.764   2.909
 1346WAT     H1 4060   6.729   1.796   2.843
 1346WAT     H2 4061   6.722   1.715   2.971
 1347WAT      O 4062   5.720   1.632   2.921
 1347WAT     H1 4063   5.775   1.614   2.844
 1347WAT     H2 4064   5.727   1.553   2.974
 1348WAT      O 4065   5.797   3.291   2.722
 1348WAT     H1 4066   5.738   3.278   2.795
 1348WAT     H2 4067   5.797   3.207   2.675
 1349WAT      O 4068   6.742   1.620   2.542
 1349WAT     H1 4069   6.654   1.654   2.522
 1349WAT     H2 4070   6.731   1.573   2.624
 1350WAT      O 4071   6.833   1.841   2.680
 1350WAT     H1 4072   6.800   1.760   2.642
 1350WAT     H2 4073   6.927   1.837   2.668
 1351WAT      O 4074   5.760   3.028   2.617
 1351WAT     H1 4075   5.688   2.966   2.610
 1351WAT     H2 4076   5.767   3.067   2.530
 1352WAT      O 4077   6.121   3.249   2.295
 1352WAT     H1 4078   6.173   3.188   2.243
 1352WAT     H2 4079   6.186   3.299   2.344
 1353WAT      O 4080   6.395   3.338   2.378
 1353WAT     H1 4081   6.424   3.313   2.290
 1353WAT     H2 4082   6.446   3.283   2.437
 1354WAT      O 4083   6.517   1.712   2.436
 1354WAT     H1 4084   6.438   1.759   2.464
 1354WAT     H2 4085   6.487   1.622   2.425
 1355WAT      O 4086   5.589   3.359   1.938
 1355WAT     H1 4087   5.572   3.296   2.007
 1355WAT     H2 4088   5.502   3.380   1.902
 1356WAT      O 4089   5.651   1.742   1.688
 1356WAT     H1 4090   5.727   1.754   1.631
 1356WAT     H2 4091   5.605   1.826   1.683
 1357WAT      O 4092   6.305   1.954   1.987
 1357WAT     H1 4093   6.224   1.916   1.953
 1357WAT     H2 4094   6.356   1.878   2.017
 1358WAT      O 4095   6.755   1.620   2.111
 1358WAT     H1 4096   6.816   1.677   2.158
 1358WAT     H2 4097   6.681   1.677   2.088
 1359WAT      O 4098   5.749   3.229   1.682
 1359WAT     H1 4099   5.697   3.267   1.612
 1359WAT     H2 4100   5.742   3.291   1.754
 1360WAT      O 4101   5.888   1.795   1.542
 1360WAT     H1 4102   5.941   1.716   1.529
 1360WAT     H2 4103   5.952   1.863   1.565
 1361WAT      O 4104   6.108   1.769   1.847
 1361WAT     H1 4105   6.045   1.699   1.864
 1361WAT     H2 4106   6.054   1.845   1.826
 1362WAT      O 4107   6.402   3.430   3.114
 1362WAT     H1 4108   6.494   3.407   3.119
 1362WAT     H2 4109   6.400   3.513   3.066
 1363WAT      O 4110   6.120   1.697   3.091
 1363WAT     H1 4111   6.092   1.747   3.014
 1363WAT     H2 4112   6.158   1.617   3.054
 1364WAT      O 4113   6.009   3.423   1.570
 1364WAT     H1 4114   6.083   3.395   1.515
 1364WAT     H2 4115   6.035   3.400   1.659
 1365WAT      O 4116   5.925   3.035   1.570
 1365WAT     H1 4117   5.863   3.082   1.625
 1365WAT     H2 4118   5.937   2.951   1.613
 1366WAT      O 4119   6.780   1.638   3.149
 1366WAT     H1 4120   6.769   1.670   3.238
 1366WAT     H2 4121   6.862   1.678   3.119
 1367WAT      O 4122   6.484   2.618   0.373
 1367WAT     H1 4123   6.407   2.570   0.402
 1367WAT     H2 4124   6.549   2.550   0.356
 1368WAT      O 4125   5.886   2.649   0.461
 1368WAT     H1 4126   5.803   2.624   0.501
 1368WAT     H2 4127   5.947   2.656   0.534
 1369WAT      O 4128   6.886   3.059   0.251
 1369WAT     H1 4129   6.840   2.981   0.284
 1369WAT     H2 4130   6.967   3.061   0.302
 1370WAT      O 4131   5.884   3.053   0.480
 1370WAT     H1 4132   5.914   2.964   0.463
 1370WAT     H2 4133   5.958   3.108   0.458
 1371WAT      O 4134   5.523   2.405   0.428
 1371WAT     H1 4135   5.580   2.328   0.428
 1371WAT     H2 4136   5.523   2.435   0.337
 1372WAT      O 4137   6.428   2.886   0.374
 1372WAT     H1 4138   6.421   2.791   0.358
 1372WAT     H2 4139   6.504   2.895   0.431
 1373WAT      O 4140   5.647   1.946   0.606
 1373WAT     H1 4141   5.629   1.856   0.634
 1373WAT     H2 4142   5.607   2.001   0.674
 1374WAT      O 4143   6.531   2.166   0.397
 1374WAT     H1 4144   6.569   2.079   0.385
 1374WAT     H2 4145   6.521   2.200   0.307
 1375WAT      O 4146   5.709   2.196   0.467
 1375WAT     H1 4147   5.777   2.222   0.529
 1375WAT     H2 4148   5.678   2.112   0.501
 1376WAT      O 4149   6.128   2.300   0.376
 1376WAT     H1 4150   6.179   2.350   0.440
 1376WAT     H2 4151   6.182   2.223   0.358
 1377WAT      O 4152   5.957   1.764   0.803
 1377WAT     H1 4153   5.957   1.816   0.722
 1377WAT     H2 4154   5.874   1.717   0.800
 1378WAT      O 4155   6.082   2.728   0.620
 1378WAT     H1 4156   6.048   2.791   0.685
 1378WAT     H2 4157   6.099   2.781   0.542
 1379WAT      O 4158   6.933   2.110   0.367
 1379WAT     H1 4159   6.863   2.139   0.425
 1379WAT     H2 4160   6.969   2.191   0.331
 1380WAT      O 4161   5.925   1.935   0.603
 1380WAT     H1 4162   5.959   2.020   0.574
 1380WAT     H2 4163   5.831   1.950   0.615
 1381WAT      O 4164   6.003   2.925   0.802
 1381WAT     H1 4165   6.065   2.993   0.774
 1381WAT     H2 4166   5.917   2.966   0.793
 1382WAT      O 4167   6.848   3.256   0.465
 1382WAT     H1 4168   6.850   3.216   0.378
 1382WAT     H2 4169   6.793   3.333   0.454
 1383WAT      O 4170   6.788   2.746   0.598
 1383WAT     H1 4171   6.830   2.725   0.514
 1383WAT     H2 4172   6.861   2.772   0.655
 1384WAT      O 4173   6.879   2.265   0.701
 1384WAT     H1 4174   6.838   2.347   0.727
 1384WAT     H2 4175   6.806   2.206   0.682
 1385WAT      O 4176   6.139   2.912   0.404
 1385WAT     H1 4177   6.110   2.852   0.336
 1385WAT     H2 4178   6.234   2.916   0.393
 1386WAT      O 4179   5.964   2.221   0.566
 1386WAT     H1 4180   6.019   2.232   0.488
 1386WAT     H2 4181   6.015   2.258   0.637
 1387WAT      O 4182   6.948   3.269   0.770
 1387WAT     H1 4183   6.901   3.350   0.751
 1387WAT     H2 4184   6.880   3.204   0.785
 1388WAT      O 4185   6.049   2.886   1.069
 1388WAT     H1 4186   5.959   2.908   1.094
 1388WAT     H2 4187   6.051   2.898   0.974
 1389WAT      O 4188   5.931   2.573   0.927
 1389WAT     H1 4189   5.917   2.660   0.963
 1389WAT     H2 4190   5.843   2.539   0.912
 1390WAT      O 4191   6.111   3.167   1.147
 1390WAT     H1 4192   6.108   3.208   1.061
 1390WAT     H2 4193   6.095   3.074   1.131
 1391WAT      O 4194   5.526   2.750   0.518
 1391WAT     H1 4195   5.534   2.763   0.424
 1391WAT     H2 4196   5.588   2.679   0.538
 1392WAT      O 4197   6.633   3.335   0.850
 1392WAT     H1 4198   6.684   3.326   0.930
 1392WAT     H2 4199   6.548   3.369   0.879
 1393WAT      O 4200   5.532   2.854   0.772
 1393WAT     H1 4201   5.548   2.807   0.690
 1393WAT     H2 4202   5.579   2.803   0.839
 1394WAT      O 4203   6.009   1.767   0.276
 1394WAT     H1 4204   5.965   1.845   0.243
 1394WAT     H2 4205   6.065   1.799   0.347
 1395WAT      O 4206   6.438   2.054   0.836
 1395WAT     H1 4207   6.392   2.075   0.917
 1395WAT     H2 4208   6.398   1.972   0.806
 1396WAT      O 4209   6.938   2.176   0.949
 1396WAT     H1 4210   6.853   2.146   0.981
 1396WAT     H2 4211   6.922   2.200   0.858
 1397WAT      O 4212   6.648   2.326   1.159
 1397WAT     H1 4213   6.680   2.243   1.125
 1397WAT     H2 4214   6.726   2.378   1.174
 1398WAT      O 4215   6.213   1.822   0.462
 1398WAT     H1 4216   6.243   1.912   0.454
 1398WAT     H2 4217   6.268   1.773   0.400
 1399WAT      O 4218   6.232   2.369   1.115
 1399WAT     H1 4219   6.223   2.275   1.100
 1399WAT     H2 4220   6.317   2.392   1.076
 1400WAT      O 4221   5.746   2.011   0.931
 1400WAT     H1 4222   5.706   2.095   0.951
 1400WAT     H2 4223   5.677   1.947   0.950
 1401WAT      O 4224   6.403   2.019   1.238
 1401WAT     H1 4225   6.334   2.000   1.301
 1401WAT     H2 4226   6.477   2.047   1.291
 1402WAT      O 4227   5.476   1.803   0.334
 1402WAT     H1 4228   5.447   1.860   0.405
 1402WAT     H2 4229   5.550   1.755   0.370
 1403WAT      O 4230   6.631   2.403   0.521
 1403WAT     H1 4231   6.557   2.454   0.556
 1403WAT     H2 4232   6.591   2.321   0.491
 1404WAT      O 4233   6.274   2.070   0.362
 1404WAT     H1 4234   6.275   2.026   0.277
 1404WAT     H2 4235   6.364   2.103   0.372
 1405WAT      O 4236   5.859   2.059   0.258
 1405WAT     H1 4237   5.825   2.106   0.333
 1405WAT     H2 4238   5.783   2.013   0.222
 1406WAT      O 4239   6.677   1.948   0.462
 1406WAT     H1 4240   6.679   1.993   0.547
 1406WAT     H2 4241   6.652   1.858   0.484
 1407WAT      O 4242   5.689   2.792   0.988
 1407WAT     H1 4243   5.651   2.728   1.048
 1407WAT     H2 4244   5.721   2.862   1.045
 1408WAT      O 4245   6.304   2.476   0.536
 1408WAT     H1 4246   6.341   2.429   0.611
 1408WAT     H2 4247   6.285   2.564   0.570
 1409WAT      O 4248   6.083   2.380   0.768
 1409WAT     H1 4249   6.053   2.468   0.791
 1409WAT     H2 4250   6.179   2.386   0.772
 1410WAT      O 4251   6.550   2.708   0.996
 1410WAT     H1 4252   6.544   2.616   0.970
 1410WAT     H2 4253   6.487   2.718   1.067
 1411WAT      O 4254   5.941   2.768   0.192
 1411WAT     H1 4255   5.992   2.688   0.186
 1411WAT     H2 4256   5.895   2.762   0.276
 1412WAT      O 4257   5.689   2.465   0.883
 1412WAT     H1 4258   5.653   2.531   0.942
 1412WAT     H2 4259   5.660   2.381   0.920
 1413WAT      O 4260   6.009   2.510   1.171
 1413WAT     H1 4261   5.979   2.525   1.081
 1413WAT     H2 4262   6.086   2.454   1.162
 1414WAT      O 4263   6.543   2.990   0.971
 1414WAT     H1 4264   6.545   2.897   0.949
 1414WAT     H2 4265   6.473   2.999   1.035
 1415WAT      O 4266   6.718   2.827   0.255
 1415WAT     H1 4267   6.753   2.767   0.189
 1415WAT     H2 4268   6.629   2.794   0.272
 1416WAT      O 4269   6.487   3.154   0.680
 1416WAT     H1 4270   6.551   3.175   0.748
 1416WAT     H2 4271   6.523   3.078   0.635
 1417WAT      O 4272   6.614   2.955   0.552
 1417WAT     H1 4273   6.678   2.884   0.563
 1417WAT     H2 4274   6.667   3.033   0.534
 1418WAT      O 4275   6.792   3.034   0.872
 1418WAT     H1 4276   6.825   3.093   0.940
 1418WAT     H2 4277   6.700   3.021   0.895
 1419WAT      O 4278   5.547   1.813   0.951
 1419WAT     H1 4279   5.475   1.833   1.011
 1419WAT     H2 4280   5.589   1.736   0.988
 1420WAT      O 4281   5.575   3.212   1.049
 1420WAT     H1 4282   5.586   3.118   1.035
 1420WAT     H2 4283   5.510   3.239   0.984
 1421WAT      O 4284   6.374   3.039   1.189
 1421WAT     H1 4285   6.342   2.967   1.244
 1421WAT     H2 4286   6.307   3.107   1.197
 1422WAT      O 4287   6.696   2.063   0.726
 1422WAT     H1 4288   6.733   1.981   0.758
 1422WAT     H2 4289   6.610   2.069   0.767
 1423WAT      O 4290   6.392   2.328   0.748
 1423WAT     H1 4291   6.442   2.376   0.814
 1423WAT     H2 4292   6.406   2.236   0.769
 1424WAT      O 4293   6.942   2.474   0.177
 1424WAT     H1 4294   6.848   2.476   0.194
 1424WAT     H2 4295   6.973   2.395   0.221
 1425WAT      O 4296   5.889   3.400   0.312
 1425WAT     H1 4297   5.963   3.346   0.339
 1425WAT     H2 4298   5.928   3.487   0.298
 1426WAT      O 4299   5.790   3.319   1.230
 1426WAT     H1 4300   5.870   3.351   1.272
 1426WAT     H2 4301   5.738   3.283   1.303
 1427WAT      O 4302   6.674   2.930   1.225
 1427WAT     H1 4303   6.613   2.932   1.151
 1427WAT     H2 4304   6.643   2.857   1.279
 1428WAT      O 4305   6.817   3.303   1.086
 1428WAT     H1 4306   6.912   3.294   1.081
 1428WAT     H2 4307   6.802   3.369   1.154
 1429WAT      O 4308   5.562   2.568   1.125
 1429WAT     H1 4309   5.612   2.510   1.182
 1429WAT     H2 4310   5.488   2.596   1.179
 1430WAT      O 4311   6.267   2.708   1.078
 1430WAT     H1 4312   6.191   2.765   1.070
 1430WAT     H2 4313   6.285   2.679   0.989
 1431WAT      O 4314   5.765   2.382   1.214
 1431WAT     H1 4315   5.769   2.352   1.305
 1431WAT     H2 4316   5.851   2.422   1.198
 1432WAT      O 4317   5.959   2.240   1.011
 1432WAT     H1 4318   5.906   2.191   0.948
 1432WAT     H2 4319   6.026   2.283   0.958
 1433WAT      O 4320   6.849   2.687   0.987
 1433WAT     H1 4321   6.890   2.702   1.072
 1433WAT     H2 4322   6.755   2.699   1.004
 1434WAT      O 4323   6.896   2.421   1.188
 1434WAT     H1 4324   6.954   2.345   1.179
 1434WAT     H2 4325   6.914   2.474   1.110
 1435WAT      O 4326   6.008   1.937   1.019
 1435WAT     H1 4327   5.998   1.875   0.946
 1435WAT     H2 4328   5.950   2.009   0.996
 1436WAT      O 4329   6.284   1.792   0.722
 1436WAT     H1 4330   6.240   1.794   0.638
 1436WAT     H2 4331   6.221   1.752   0.782
 1437WAT      O 4332   6.325   2.682   0.784
 1437WAT     H1 4333   6.367   2.766   0.767
 1437WAT     H2 4334   6.233   2.696   0.761
 1438WAT      O 4335   6.559   2.455   0.923
 1438WAT     H1 4336   6.571   2.395   0.997
 1438WAT     H2 4337   6.645   2.459   0.881
 1439WAT      O 4338   6.793   2.510   0.780
 1439WAT     H1 4339   6.740   2.563   0.720
 1439WAT     H2 4340   6.827   2.574   0.843
 1440WAT      O 4341   6.110   3.312   0.896
 1440WAT     H1 4342   6.056   3.385   0.864
 1440WAT     H2 4343   6.135   3.265   0.817
 1441WAT      O 4344   6.235   2.109   1.049
 1441WAT     H1 4345   6.294   2.078   1.117
 1441WAT     H2 4346   6.154   2.062   1.064
 1442WAT      O 4347   6.717   2.071   1.072
 1442WAT     H1 4348   6.648   2.005   1.065
 1442WAT     H2 4349   6.789   2.026   1.116
 1443WAT      O 4350   6.396   3.436   0.922
 1443WAT     H1 4351   6.388   3.526   0.953
 1443WAT     H2 4352   6.306   3.404   0.919
 1444WAT      O 4353   5.536   3.169   0.252
 1444WAT     H1 4354   5.569   3.082   0.229
 1444WAT     H2 4355   5.579   3.189   0.335
 1445WAT      O 4356   5.585   3.255   0.526
 1445WAT     H1 4357   5.541   3.273   0.609
 1445WAT     H2 4358   5.642   3.331   0.512
 1446WAT      O 4359   5.672   2.545   0.616
 1446WAT     H1 4360   5.709   2.536   0.704
 1446WAT     H2 4361   5.615   2.469   0.606
 1447WAT      O 4362   5.627   2.236   1.006
 1447WAT     H1 4363   5.538   2.233   1.040
 1447WAT     H2 4364   5.681   2.256   1.083
 1448WAT      O 4365   5.677   1.664   0.441
 1448WAT     H1 4366   5.742   1.609   0.397
 1448WAT     H2 4367   5.720   1.689   0.523
 1449WAT      O 4368   5.653   1.679   0.716
 1449WAT     H1 4369   5.618   1.725   0.792
 1449WAT     H2 4370   5.620   1.590   0.724
 1450WAT      O 4371   5.813   2.996   1.132
 1450WAT     H1 4372   5.809   2.959   1.220
 1450WAT     H2 4373   5.827   3.090   1.146
 1451WAT      O 4374   6.184   3.152   0.692
 1451WAT     H1 4375   6.159   3.179   0.603
 1451WAT     H2 4376   6.278   3.169   0.698
 1452WAT      O 4377   6.404   1.798   1.068
 1452WAT     H1 4378   6.398   1.857   1.143
 1452WAT     H2 4379   6.498   1.788   1.053
 1453WAT      O 4380   6.668   1.764   1.032
 1453WAT     H1 4381   6.729   1.796   0.965
 1453WAT     H2 4382   6.722   1.715   1.094
 1454WAT      O 4383   5.720   1.632   1.043
 1454WAT     H1 4384   5.775   1.614   0.967
 1454WAT     H2 4385   5.727   1.553   1.097
 1455WAT      O 4386   5.797   3.291   0.844
 1455WAT     H1 4387   5.738   3.278   0.918
 1455WAT     H2 4388   5.797   3.207   0.797
 1456WAT      O 4389   6.742   1.620   0.664
 1456WAT     H1 4390   6.654   1.654   0.644
 1456WAT     H2 4391   6.731   1.573   0.747
 1457WAT      O 4392   6.833   1.841   0.803
 1457WAT     H1 4393   6.800   1.760   0.765
 1457WAT     H2 4394   6.927   1.837   0.790
 1458WAT      O 4395   5.760   3.028   0.739
 1458WAT     H1 4396   5.688   2.966   0.732
 1458WAT     H2 4397   5.767   3.067   0.652
 1459WAT      O 4398   6.121   3.249   0.418
 1459WAT     H1 4399   6.173   3.188   0.365
 1459WAT     H2 4400   6.186   3.299   0.467
 1460WAT      O 4401   6.395   3.338   0.500
 1460WAT     H1 4402   6.424   3.313   0.413
 1460WAT     H2 4403   6.446   3.283   0.559
 1461WAT      O 4404   6.517   1.712   0.558
 1461WAT     H1 4405   6.438   1.759   0.586
 1461WAT     H2 4406   6.487   1.622   0.547
 1462WAT      O 4407   6.755   1.620   0.233
 1462WAT     H1 4408   6.816   1.677   0.281
 1462WAT     H2 4409   6.681   1.677   0.211
 1463WAT      O 4410   6.402   3.430   1.237
 1463WAT     H1 4411   6.494   3.407   1.241
 1463WAT     H2 4412   6.400   3.513   1.189
 1464WAT      O 4413   6.120   1.697   1.213
 1464WAT     H1 4414   6.092   1.747   1.137
 1464WAT     H2 4415   6.158   1.617   1.177
 1465WAT      O 4416   6.780   1.638   1.271
 1465WAT     H1 4417   6.769   1.670   1.361
 1465WAT     H2 4418   6.862   1.678   1.242
 1466WAT      O 4419   6.671   0.563   5.817
 1466WAT     H1 4420   6.663   0.471   5.790
 1466WAT     H2 4421   6.630   0.612   5.747
 1467WAT      O 4422   6.484   0.740   6.005
 1467WAT     H1 4423   6.407   0.693   6.034
 1467WAT     H2 4424   6.549   0.673   5.988
 1468WAT      O 4425   6.886   1.181   5.883
 1468WAT     H1 4426   6.840   1.104   5.916
 1468WAT     H2 4427   6.967   1.184   5.934
 1469WAT      O 4428   5.884   1.175   6.113
 1469WAT     H1 4429   5.914   1.086   6.095
 1469WAT     H2 4430   5.958   1.231   6.090
 1470WAT      O 4431   5.727   0.268   5.472
 1470WAT     H1 4432   5.638   0.302   5.461
 1470WAT     H2 4433   5.755   0.248   5.382
 1471WAT      O 4434   5.523   0.528   6.060
 1471WAT     H1 4435   5.580   0.451   6.060
 1471WAT     H2 4436   5.523   0.558   5.969
 1472WAT      O 4437   6.509   1.410   5.845
 1472WAT     H1 4438   6.447   1.455   5.788
 1472WAT     H2 4439   6.594   1.425   5.805
 1473WAT      O 4440   6.428   1.008   6.006
 1473WAT     H1 4441   6.421   0.914   5.990
 1473WAT     H2 4442   6.504   1.017   6.063
 1474WAT      O 4443   6.531   0.289   6.029
 1474WAT     H1 4444   6.569   0.201   6.018
 1474WAT     H2 4445   6.521   0.322   5.940
 1475WAT      O 4446   6.128   0.423   6.008
 1475WAT     H1 4447   6.179   0.473   6.072
 1475WAT     H2 4448   6.182   0.345   5.991
 1476WAT      O 4449   6.595   0.898   5.585
 1476WAT     H1 4450   6.534   0.945   5.528
 1476WAT     H2 4451   6.647   0.967   5.626
 1477WAT      O 4452   6.933   0.232   5.999
 1477WAT     H1 4453   6.863   0.261   6.057
 1477WAT     H2 4454   6.969   0.313   5.963
 1478WAT      O 4455   5.532   0.967   5.322
 1478WAT     H1 4456   5.495   1.016   5.249
 1478WAT     H2 4457   5.558   1.034   5.385
 1479WAT      O 4458   6.848   1.378   6.097
 1479WAT     H1 4459   6.850   1.338   6.010
 1479WAT     H2 4460   6.793   1.456   6.087
 1480WAT      O 4461   6.978   1.051   5.606
 1480WAT     H1 4462   6.967   0.956   5.618
 1480WAT     H2 4463   6.977   1.087   5.695
 1481WAT      O 4464   6.532   0.613   5.542
 1481WAT     H1 4465   6.439   0.607   5.565
 1481WAT     H2 4466   6.547   0.707   5.530
 1482WAT      O 4467   6.531   0.240   5.241
 1482WAT     H1 4468   6.437   0.257   5.250
 1482WAT     H2 4469   6.563   0.312   5.187
 1483WAT      O 4470   6.935   0.769   5.592
 1483WAT     H1 4471   6.873   0.736   5.527
 1483WAT     H2 4472   6.933   0.705   5.663
 1484WAT      O 4473   6.093   0.666   5.820
 1484WAT     H1 4474   6.052   0.595   5.770
 1484WAT     H2 4475   6.101   0.631   5.909
 1485WAT      O 4476   6.139   1.035   6.036
 1485WAT     H1 4477   6.110   0.974   5.968
 1485WAT     H2 4478   6.234   1.038   6.025
 1486WAT      O 4479   6.753   0.693   5.293
 1486WAT     H1 4480   6.797   0.610   5.278
 1486WAT     H2 4481   6.824   0.757   5.301
 1487WAT      O 4482   6.564   1.187   5.690
 1487WAT     H1 4483   6.608   1.262   5.648
 1487WAT     H2 4484   6.557   1.212   5.782
 1488WAT      O 4485   5.763   0.555   5.570
 1488WAT     H1 4486   5.751   0.628   5.509
 1488WAT     H2 4487   5.732   0.478   5.522
 1489WAT      O 4488   5.651   1.043   5.792
 1489WAT     H1 4489   5.610   1.057   5.706
 1489WAT     H2 4490   5.740   1.014   5.771
 1490WAT      O 4491   6.830   1.486   5.425
 1490WAT     H1 4492   6.814   1.457   5.515
 1490WAT     H2 4493   6.814   1.408   5.372
 1491WAT      O 4494   6.078   1.464   5.603
 1491WAT     H1 4495   6.061   1.372   5.582
 1491WAT     H2 4496   5.993   1.500   5.627
 1492WAT      O 4497   6.801   1.237   5.281
 1492WAT     H1 4498   6.731   1.237   5.215
 1492WAT     H2 4499   6.875   1.194   5.238
 1493WAT      O 4500   6.757   1.400   5.689
 1493WAT     H1 4501   6.803   1.321   5.720
 1493WAT     H2 4502   6.791   1.471   5.743
 1494WAT      O 4503   5.988   0.402   5.681
 1494WAT     H1 4504   5.966   0.380   5.771
 1494WAT     H2 4505   5.910   0.445   5.646
 1495WAT      O 4506   6.711   0.403   5.541
 1495WAT     H1 4507   6.651   0.475   5.522
 1495WAT     H2 4508   6.766   0.396   5.463
 1496WAT      O 4509   6.572   0.266   5.744
 1496WAT     H1 4510   6.611   0.298   5.663
 1496WAT     H2 4511   6.608   0.178   5.755
 1497WAT      O 4512   5.494   0.320   5.087
 1497WAT     H1 4513   5.486   0.414   5.101
 1497WAT     H2 4514   5.459   0.305   4.999
 1498WAT      O 4515   6.281   0.293   5.293
 1498WAT     H1 4516   6.293   0.289   5.388
 1498WAT     H2 4517   6.242   0.379   5.277
 1499WAT      O 4518   6.182   0.524   5.233
 1499WAT     H1 4519   6.125   0.479   5.170
 1499WAT     H2 4520   6.253   0.560   5.179
 1500WAT      O 4521   5.936   0.924   5.460
 1500WAT     H1 4522   5.859   0.870   5.444
 1500WAT     H2 4523   6.009   0.872   5.426
 1501WAT      O 4524   6.830   0.400   5.283
 1501WAT     H1 4525   6.919   0.431   5.266
 1501WAT     H2 4526   6.827   0.313   5.244
 1502WAT      O 4527   5.941   0.890   5.824
 1502WAT     H1 4528   5.992   0.810   5.818
 1502WAT     H2 4529   5.895   0.884   5.908
 1503WAT      O 4530   6.429   1.017   5.351
 1503WAT     H1 4531   6.463   1.092   5.302
 1503WAT     H2 4532   6.346   1.048   5.387
 1504WAT      O 4533   6.718   0.949   5.888
 1504WAT     H1 4534   6.753   0.890   5.822
 1504WAT     H2 4535   6.629   0.917   5.905
 1505WAT      O 4536   6.326   1.025   5.628
 1505WAT     H1 4537   6.395   1.080   5.666
 1505WAT     H2 4538   6.248   1.080   5.632
 1506WAT      O 4539   5.540   0.587   5.177
 1506WAT     H1 4540   5.627   0.615   5.206
 1506WAT     H2 4541   5.491   0.668   5.166
 1507WAT      O 4542   6.256   0.726   5.590
 1507WAT     H1 4543   6.302   0.807   5.612
 1507WAT     H2 4544   6.221   0.694   5.673
 1508WAT      O 4545   5.577   1.508   5.234
 1508WAT     H1 4546   5.613   1.568   5.169
 1508WAT     H2 4547   5.563   1.563   5.311
 1509WAT      O 4548   6.179   1.247   5.316
 1509WAT     H1 4549   6.178   1.320   5.254
 1509WAT     H2 4550   6.087   1.222   5.325
 1510WAT      O 4551   5.739   0.769   5.390
 1510WAT     H1 4552   5.678   0.843   5.391
 1510WAT     H2 4553   5.786   0.778   5.308
 1511WAT      O 4554   6.477   1.253   5.182
 1511WAT     H1 4555   6.487   1.232   5.089
 1511WAT     H2 4556   6.387   1.227   5.203
 1512WAT      O 4557   6.229   0.309   5.580
 1512WAT     H1 4558   6.159   0.356   5.624
 1512WAT     H2 4559   6.258   0.243   5.644
 1513WAT      O 4560   6.341   1.505   5.652
 1513WAT     H1 4561   6.367   1.501   5.559
 1513WAT     H2 4562   6.246   1.492   5.651
 1514WAT      O 4563   6.942   0.597   5.809
 1514WAT     H1 4564   6.848   0.598   5.827
 1514WAT     H2 4565   6.973   0.518   5.854
 1515WAT      O 4566   5.940   0.765   5.165
 1515WAT     H1 4567   6.016   0.754   5.221
 1515WAT     H2 4568   5.947   0.695   5.100
 1516WAT      O 4569   5.809   0.508   5.234
 1516WAT     H1 4570   5.817   0.413   5.245
 1516WAT     H2 4571   5.898   0.541   5.244
 1517WAT      O 4572   5.889   1.523   5.944
 1517WAT     H1 4573   5.963   1.468   5.971
 1517WAT     H2 4574   5.928   1.610   5.930
 1518WAT      O 4575   5.578   1.130   5.531
 1518WAT     H1 4576   5.485   1.154   5.530
 1518WAT     H2 4577   5.624   1.213   5.519
 1519WAT      O 4578   6.200   1.440   5.126
 1519WAT     H1 4579   6.280   1.469   5.081
 1519WAT     H2 4580   6.148   1.397   5.058
 1520WAT      O 4581   6.252   0.962   5.113
 1520WAT     H1 4582   6.242   0.901   5.185
 1520WAT     H2 4583   6.235   0.910   5.034
 1521WAT      O 4584   6.576   0.869   5.173
 1521WAT     H1 4585   6.521   0.913   5.237
 1521WAT     H2 4586   6.638   0.818   5.225
 1522WAT      O 4587   6.143   0.764   5.363
 1522WAT     H1 4588   6.185   0.748   5.447
 1522WAT     H2 4589   6.155   0.683   5.313
 1523WAT      O 4590   6.394   0.667   5.087
 1523WAT     H1 4591   6.446   0.595   5.051
 1523WAT     H2 4592   6.459   0.731   5.117
 1524WAT      O 4593   6.032   0.372   5.057
 1524WAT     H1 4594   6.012   0.285   5.093
 1524WAT     H2 4595   6.015   0.363   4.963
 1525WAT      O 4596   6.451   1.475   5.316
 1525WAT     H1 4597   6.540   1.509   5.319
 1525WAT     H2 4598   6.454   1.403   5.254
 1526WAT      O 4599   5.815   1.012   5.139
 1526WAT     H1 4600   5.858   1.067   5.205
 1526WAT     H2 4601   5.863   0.930   5.140
 1527WAT      O 4602   5.536   1.291   5.884
 1527WAT     H1 4603   5.569   1.204   5.861
 1527WAT     H2 4604   5.579   1.312   5.968
 1528WAT      O 4605   5.996   1.124   5.650
 1528WAT     H1 4606   5.966   1.112   5.741
 1528WAT     H2 4607   5.985   1.038   5.610
 1529WAT      O 4608   5.568   0.629   5.794
 1529WAT     H1 4609   5.503   0.602   5.730
 1529WAT     H2 4610   5.652   0.618   5.749
 1530WAT      O 4611   5.490   0.350   5.388
 1530WAT     H1 4612   5.399   0.376   5.371
 1530WAT     H2 4613   5.538   0.377   5.310
 1531WAT      O 4614   5.744   0.256   5.179
 1531WAT     H1 4615   5.815   0.214   5.131
 1531WAT     H2 4616   5.672   0.262   5.116
 1532WAT      O 4617   6.121   1.372   6.050
 1532WAT     H1 4618   6.173   1.310   5.997
 1532WAT     H2 4619   6.186   1.422   6.099
 1533WAT      O 4620   5.589   1.482   5.692
 1533WAT     H1 4621   5.572   1.419   5.762
 1533WAT     H2 4622   5.502   1.502   5.657
 1534WAT      O 4623   5.749   1.351   5.437
 1534WAT     H1 4624   5.697   1.389   5.367
 1534WAT     H2 4625   5.742   1.414   5.509
 1535WAT      O 4626   6.009   1.546   5.324
 1535WAT     H1 4627   6.083   1.518   5.270
 1535WAT     H2 4628   6.035   1.522   5.413
 1536WAT      O 4629   5.925   1.158   5.325
 1536WAT     H1 4630   5.863   1.205   5.380
 1536WAT     H2 4631   5.937   1.073   5.368
 1537WAT      O 4632   6.671   0.563   3.940
 1537WAT     H1 4633   6.663   0.471   3.913
 1537WAT     H2 4634   6.630   0.612   3.869
 1538WAT      O 4635   6.484   0.740   4.128
 1538WAT     H1 4636   6.407   0.693   4.157
 1538WAT     H2 4637   6.549   0.673   4.111
 1539WAT      O 4638   5.886   0.772   4.216
 1539WAT     H1 4639   5.803   0.746   4.256
 1539WAT     H2 4640   5.947   0.779   4.289
 1540WAT      O 4641   6.886   1.181   4.006
 1540WAT     H1 4642   6.840   1.104   4.039
 1540WAT     H2 4643   6.967   1.184   4.057
 1541WAT      O 4644   5.884   1.175   4.235
 1541WAT     H1 4645   5.914   1.086   4.217
 1541WAT     H2 4646   5.958   1.231   4.213
 1542WAT      O 4647   5.727   0.268   3.594
 1542WAT     H1 4648   5.638   0.302   3.584
 1542WAT     H2 4649   5.755   0.248   3.505
 1543WAT      O 4650   5.523   0.528   4.183
 1543WAT     H1 4651   5.580   0.451   4.183
 1543WAT     H2 4652   5.523   0.558   4.092
 1544WAT      O 4653   6.509   1.410   3.968
 1544WAT     H1 4654   6.447   1.455   3.911
 1544WAT     H2 4655   6.594   1.425   3.928
 1545WAT      O 4656   6.428   1.008   4.129
 1545WAT     H1 4657   6.421   0.914   4.113
 1545WAT     H2 4658   6.504   1.017   4.186
 1546WAT      O 4659   6.531   0.289   4.151
 1546WAT     H1 4660   6.569   0.201   4.140
 1546WAT     H2 4661   6.521   0.322   4.062
 1547WAT      O 4662   5.709   0.318   4.222
 1547WAT     H1 4663   5.777   0.345   4.284
 1547WAT     H2 4664   5.678   0.234   4.255
 1548WAT      O 4665   6.128   0.423   4.131
 1548WAT     H1 4666   6.179   0.473   4.195
 1548WAT     H2 4667   6.182   0.345   4.113
 1549WAT      O 4668   6.595   0.898   3.707
 1549WAT     H1 4669   6.534   0.945   3.651
 1549WAT     H2 4670   6.647   0.967   3.749
 1550WAT      O 4671   6.082   0.851   4.375
 1550WAT     H1 4672   6.048   0.914   4.439
 1550WAT     H2 4673   6.099   0.903   4.297
 1551WAT      O 4674   6.933   0.232   4.122
 1551WAT     H1 4675   6.863   0.261   4.180
 1551WAT     H2 4676   6.969   0.313   4.086
 1552WAT      O 4677   6.003   1.048   4.557
 1552WAT     H1 4678   6.065   1.115   4.529
 1552WAT     H2 4679   5.917   1.089   4.548
 1553WAT      O 4680   5.532   0.967   3.445
 1553WAT     H1 4681   5.495   1.016   3.372
 1553WAT     H2 4682   5.558   1.034   3.508
 1554WAT      O 4683   6.848   1.378   4.220
 1554WAT     H1 4684   6.850   1.338   4.133
 1554WAT     H2 4685   6.793   1.456   4.209
 1555WAT      O 4686   6.978   1.051   3.729
 1555WAT     H1 4687   6.967   0.956   3.741
 1555WAT     H2 4688   6.977   1.087   3.817
 1556WAT      O 4689   6.788   0.869   4.352
 1556WAT     H1 4690   6.830   0.847   4.269
 1556WAT     H2 4691   6.861   0.895   4.410
 1557WAT      O 4692   6.532   0.613   3.664
 1557WAT     H1 4693   6.439   0.607   3.687
 1557WAT     H2 4694   6.547   0.707   3.653
 1558WAT      O 4695   6.531   0.240   3.364
 1558WAT     H1 4696   6.437   0.257   3.372
 1558WAT     H2 4697   6.563   0.312   3.309
 1559WAT      O 4698   6.935   0.769   3.715
 1559WAT     H1 4699   6.873   0.736   3.650
 1559WAT     H2 4700   6.933   0.705   3.785
 1560WAT      O 4701   6.879   0.387   4.456
 1560WAT     H1 4702   6.838   0.470   4.482
 1560WAT     H2 4703   6.806   0.329   4.437
 1561WAT      O 4704   6.093   0.666   3.942
 1561WAT     H1 4705   6.052   0.595   3.893
 1561WAT     H2 4706   6.101   0.631   4.031
 1562WAT      O 4707   6.139   1.035   4.159
 1562WAT     H1 4708   6.110   0.974   4.091
 1562WAT     H2 4709   6.234   1.038   4.148
 1563WAT      O 4710   5.964   0.343   4.320
 1563WAT     H1 4711   6.019   0.354   4.243
 1563WAT     H2 4712   6.015   0.381   4.392
 1564WAT      O 4713   6.948   1.392   4.525
 1564WAT     H1 4714   6.901   1.473   4.506
 1564WAT     H2 4715   6.880   1.327   4.540
 1565WAT      O 4716   6.049   1.008   4.824
 1565WAT     H1 4717   5.959   1.031   4.849
 1565WAT     H2 4718   6.051   1.021   4.729
 1566WAT      O 4719   6.753   0.693   3.415
 1566WAT     H1 4720   6.797   0.610   3.401
 1566WAT     H2 4721   6.824   0.757   3.424
 1567WAT      O 4722   5.931   0.696   4.681
 1567WAT     H1 4723   5.917   0.783   4.718
 1567WAT     H2 4724   5.843   0.661   4.667
 1568WAT      O 4725   6.564   1.187   3.812
 1568WAT     H1 4726   6.608   1.262   3.771
 1568WAT     H2 4727   6.557   1.212   3.904
 1569WAT      O 4728   6.111   1.290   4.902
 1569WAT     H1 4729   6.108   1.330   4.816
 1569WAT     H2 4730   6.095   1.197   4.886
 1570WAT      O 4731   5.763   0.555   3.692
 1570WAT     H1 4732   5.751   0.628   3.631
 1570WAT     H2 4733   5.732   0.478   3.645
 1571WAT      O 4734   5.526   0.873   4.273
 1571WAT     H1 4735   5.534   0.886   4.179
 1571WAT     H2 4736   5.588   0.802   4.292
 1572WAT      O 4737   5.651   1.043   3.914
 1572WAT     H1 4738   5.610   1.057   3.829
 1572WAT     H2 4739   5.740   1.014   3.894
 1573WAT      O 4740   6.633   1.457   4.605
 1573WAT     H1 4741   6.684   1.449   4.685
 1573WAT     H2 4742   6.548   1.492   4.634
 1574WAT      O 4743   6.830   1.486   3.548
 1574WAT     H1 4744   6.814   1.457   3.638
 1574WAT     H2 4745   6.814   1.408   3.494
 1575WAT      O 4746   6.078   1.464   3.725
 1575WAT     H1 4747   6.061   1.372   3.704
 1575WAT     H2 4748   5.993   1.500   3.749
 1576WAT      O 4749   6.801   1.237   3.404
 1576WAT     H1 4750   6.731   1.237   3.338
 1576WAT     H2 4751   6.875   1.194   3.361
 1577WAT      O 4752   6.757   1.400   3.811
 1577WAT     H1 4753   6.803   1.321   3.843
 1577WAT     H2 4754   6.791   1.471   3.866
 1578WAT      O 4755   5.532   0.977   4.527
 1578WAT     H1 4756   5.548   0.930   4.445
 1578WAT     H2 4757   5.579   0.926   4.594
 1579WAT      O 4758   6.938   0.299   4.704
 1579WAT     H1 4759   6.853   0.269   4.736
 1579WAT     H2 4760   6.922   0.323   4.613
 1580WAT      O 4761   6.648   0.449   4.914
 1580WAT     H1 4762   6.680   0.365   4.880
 1580WAT     H2 4763   6.726   0.501   4.929
 1581WAT      O 4764   5.988   0.402   3.804
 1581WAT     H1 4765   5.966   0.380   3.894
 1581WAT     H2 4766   5.910   0.445   3.769
 1582WAT      O 4767   6.711   0.403   3.663
 1582WAT     H1 4768   6.651   0.475   3.645
 1582WAT     H2 4769   6.766   0.396   3.585
 1583WAT      O 4770   6.232   0.492   4.870
 1583WAT     H1 4771   6.223   0.398   4.855
 1583WAT     H2 4772   6.317   0.514   4.831
 1584WAT      O 4773   6.572   0.266   3.866
 1584WAT     H1 4774   6.611   0.298   3.785
 1584WAT     H2 4775   6.608   0.178   3.878
 1585WAT      O 4776   5.494   0.320   3.210
 1585WAT     H1 4777   5.486   0.414   3.224
 1585WAT     H2 4778   5.459   0.305   3.122
 1586WAT      O 4779   6.631   0.525   4.276
 1586WAT     H1 4780   6.557   0.576   4.311
 1586WAT     H2 4781   6.591   0.444   4.246
 1587WAT      O 4782   6.281   0.293   3.416
 1587WAT     H1 4783   6.293   0.289   3.510
 1587WAT     H2 4784   6.242   0.379   3.400
 1588WAT      O 4785   6.182   0.524   3.355
 1588WAT     H1 4786   6.125   0.479   3.293
 1588WAT     H2 4787   6.253   0.560   3.302
 1589WAT      O 4788   5.689   0.914   4.743
 1589WAT     H1 4789   5.651   0.850   4.803
 1589WAT     H2 4790   5.721   0.985   4.800
 1590WAT      O 4791   6.304   0.599   4.291
 1590WAT     H1 4792   6.341   0.552   4.366
 1590WAT     H2 4793   6.285   0.686   4.325
 1591WAT      O 4794   6.083   0.503   4.523
 1591WAT     H1 4795   6.053   0.591   4.545
 1591WAT     H2 4796   6.179   0.509   4.527
 1592WAT      O 4797   5.936   0.924   3.583
 1592WAT     H1 4798   5.859   0.870   3.567
 1592WAT     H2 4799   6.009   0.872   3.549
 1593WAT      O 4800   6.550   0.830   4.751
 1593WAT     H1 4801   6.544   0.738   4.725
 1593WAT     H2 4802   6.487   0.840   4.822
 1594WAT      O 4803   6.830   0.400   3.406
 1594WAT     H1 4804   6.919   0.431   3.388
 1594WAT     H2 4805   6.827   0.313   3.367
 1595WAT      O 4806   5.941   0.890   3.946
 1595WAT     H1 4807   5.992   0.810   3.941
 1595WAT     H2 4808   5.895   0.884   4.031
 1596WAT      O 4809   6.429   1.017   3.474
 1596WAT     H1 4810   6.463   1.092   3.424
 1596WAT     H2 4811   6.346   1.048   3.510
 1597WAT      O 4812   5.689   0.587   4.638
 1597WAT     H1 4813   5.653   0.654   4.696
 1597WAT     H2 4814   5.660   0.504   4.675
 1598WAT      O 4815   6.009   0.633   4.926
 1598WAT     H1 4816   5.979   0.647   4.836
 1598WAT     H2 4817   6.086   0.577   4.917
 1599WAT      O 4818   6.543   1.113   4.726
 1599WAT     H1 4819   6.545   1.019   4.704
 1599WAT     H2 4820   6.473   1.121   4.790
 1600WAT      O 4821   6.718   0.949   4.010
 1600WAT     H1 4822   6.753   0.890   3.944
 1600WAT     H2 4823   6.629   0.917   4.027
 1601WAT      O 4824   6.326   1.025   3.751
 1601WAT     H1 4825   6.395   1.080   3.789
 1601WAT     H2 4826   6.248   1.080   3.754
 1602WAT      O 4827   5.540   0.587   3.300
 1602WAT     H1 4828   5.627   0.615   3.328
 1602WAT     H2 4829   5.491   0.668   3.289
 1603WAT      O 4830   6.256   0.726   3.712
 1603WAT     H1 4831   6.302   0.807   3.735
 1603WAT     H2 4832   6.221   0.694   3.795
 1604WAT      O 4833   6.487   1.277   4.435
 1604WAT     H1 4834   6.551   1.297   4.503
 1604WAT     H2 4835   6.523   1.201   4.390
 1605WAT      O 4836   6.614   1.077   4.307
 1605WAT     H1 4837   6.678   1.007   4.318
 1605WAT     H2 4838   6.667   1.155   4.289
 1606WAT      O 4839   6.792   1.157   4.627
 1606WAT     H1 4840   6.825   1.216   4.695
 1606WAT     H2 4841   6.700   1.144   4.650
 1607WAT      O 4842   5.577   1.508   3.357
 1607WAT     H1 4843   5.613   1.568   3.291
 1607WAT     H2 4844   5.563   1.563   3.434
 1608WAT      O 4845   5.575   1.335   4.804
 1608WAT     H1 4846   5.586   1.241   4.790
 1608WAT     H2 4847   5.510   1.361   4.739
 1609WAT      O 4848   6.374   1.162   4.944
 1609WAT     H1 4849   6.342   1.090   4.999
 1609WAT     H2 4850   6.307   1.230   4.951
 1610WAT      O 4851   6.179   1.247   3.438
 1610WAT     H1 4852   6.178   1.320   3.377
 1610WAT     H2 4853   6.087   1.222   3.448
 1611WAT      O 4854   5.739   0.769   3.513
 1611WAT     H1 4855   5.678   0.843   3.514
 1611WAT     H2 4856   5.786   0.778   3.430
 1612WAT      O 4857   6.477   1.253   3.305
 1612WAT     H1 4858   6.487   1.232   3.212
 1612WAT     H2 4859   6.387   1.227   3.325
 1613WAT      O 4860   6.229   0.309   3.703
 1613WAT     H1 4861   6.159   0.356   3.747
 1613WAT     H2 4862   6.258   0.243   3.766
 1614WAT      O 4863   6.392   0.451   4.503
 1614WAT     H1 4864   6.442   0.498   4.569
 1614WAT     H2 4865   6.406   0.358   4.524
 1615WAT      O 4866   6.341   1.505   3.774
 1615WAT     H1 4867   6.367   1.501   3.682
 1615WAT     H2 4868   6.246   1.492   3.773
 1616WAT      O 4869   6.942   0.597   3.932
 1616WAT     H1 4870   6.848   0.598   3.949
 1616WAT     H2 4871   6.973   0.518   3.976
 1617WAT      O 4872   5.940   0.765   3.288
 1617WAT     H1 4873   6.016   0.754   3.344
 1617WAT     H2 4874   5.947   0.695   3.223
 1618WAT      O 4875   5.809   0.508   3.356
 1618WAT     H1 4876   5.817   0.413   3.367
 1618WAT     H2 4877   5.898   0.541   3.367
 1619WAT      O 4878   5.889   1.523   4.066
 1619WAT     H1 4879   5.963   1.468   4.093
 1619WAT     H2 4880   5.928   1.610   4.052
 1620WAT      O 4881   5.578   1.130   3.654
 1620WAT     H1 4882   5.485   1.154   3.653
 1620WAT     H2 4883   5.624   1.213   3.642
 1621WAT      O 4884   5.790   1.441   4.985
 1621WAT     H1 4885   5.870   1.474   5.027
 1621WAT     H2 4886   5.738   1.405   5.057
 1622WAT      O 4887   6.200   1.440   3.249
 1622WAT     H1 4888   6.280   1.469   3.203
 1622WAT     H2 4889   6.148   1.397   3.181
 1623WAT      O 4890   6.674   1.052   4.980
 1623WAT     H1 4891   6.613   1.055   4.906
 1623WAT     H2 4892   6.643   0.979   5.034
 1624WAT      O 4893   6.817   1.425   4.841
 1624WAT     H1 4894   6.912   1.417   4.836
 1624WAT     H2 4895   6.802   1.492   4.908
 1625WAT      O 4896   5.562   0.690   4.880
 1625WAT     H1 4897   5.612   0.632   4.937
 1625WAT     H2 4898   5.488   0.719   4.933
 1626WAT      O 4899   6.252   0.962   3.235
 1626WAT     H1 4900   6.242   0.901   3.308
 1626WAT     H2 4901   6.235   0.910   3.157
 1627WAT      O 4902   6.267   0.831   4.833
 1627WAT     H1 4903   6.191   0.888   4.825
 1627WAT     H2 4904   6.285   0.802   4.744
 1628WAT      O 4905   6.576   0.869   3.296
 1628WAT     H1 4906   6.521   0.913   3.360
 1628WAT     H2 4907   6.638   0.818   3.348
 1629WAT      O 4908   5.765   0.505   4.969
 1629WAT     H1 4909   5.769   0.475   5.060
 1629WAT     H2 4910   5.851   0.545   4.953
 1630WAT      O 4911   6.143   0.764   3.485
 1630WAT     H1 4912   6.185   0.748   3.569
 1630WAT     H2 4913   6.155   0.683   3.436
 1631WAT      O 4914   5.959   0.362   4.766
 1631WAT     H1 4915   5.906   0.313   4.703
 1631WAT     H2 4916   6.026   0.405   4.712
 1632WAT      O 4917   6.394   0.667   3.210
 1632WAT     H1 4918   6.446   0.595   3.173
 1632WAT     H2 4919   6.459   0.731   3.240
 1633WAT      O 4920   6.849   0.809   4.742
 1633WAT     H1 4921   6.890   0.825   4.827
 1633WAT     H2 4922   6.755   0.822   4.759
 1634WAT      O 4923   6.896   0.543   4.943
 1634WAT     H1 4924   6.954   0.468   4.934
 1634WAT     H2 4925   6.914   0.596   4.865
 1635WAT      O 4926   6.325   0.804   4.539
 1635WAT     H1 4927   6.367   0.889   4.522
 1635WAT     H2 4928   6.233   0.818   4.516
 1636WAT      O 4929   6.559   0.578   4.678
 1636WAT     H1 4930   6.571   0.518   4.752
 1636WAT     H2 4931   6.645   0.581   4.636
 1637WAT      O 4932   6.793   0.633   4.535
 1637WAT     H1 4933   6.740   0.685   4.475
 1637WAT     H2 4934   6.827   0.696   4.598
 1638WAT      O 4935   6.032   0.372   3.180
 1638WAT     H1 4936   6.012   0.285   3.216
 1638WAT     H2 4937   6.015   0.363   3.086
 1639WAT      O 4938   6.110   1.435   4.651
 1639WAT     H1 4939   6.056   1.507   4.619
 1639WAT     H2 4940   6.135   1.387   4.572
 1640WAT      O 4941   6.235   0.232   4.803
 1640WAT     H1 4942   6.294   0.201   4.872
 1640WAT     H2 4943   6.154   0.185   4.819
 1641WAT      O 4944   6.396   1.558   4.677
 1641WAT     H1 4945   6.388   1.649   4.707
 1641WAT     H2 4946   6.306   1.527   4.674
 1642WAT      O 4947   6.451   1.475   3.439
 1642WAT     H1 4948   6.540   1.509   3.441
 1642WAT     H2 4949   6.454   1.403   3.376
 1643WAT      O 4950   5.815   1.012   3.262
 1643WAT     H1 4951   5.858   1.067   3.327
 1643WAT     H2 4952   5.863   0.930   3.263
 1644WAT      O 4953   5.536   1.291   4.007
 1644WAT     H1 4954   5.569   1.204   3.984
 1644WAT     H2 4955   5.579   1.312   4.090
 1645WAT      O 4956   5.996   1.124   3.773
 1645WAT     H1 4957   5.966   1.112   3.863
 1645WAT     H2 4958   5.985   1.038   3.732
 1646WAT      O 4959   5.585   1.378   4.281
 1646WAT     H1 4960   5.541   1.396   4.364
 1646WAT     H2 4961   5.642   1.454   4.267
 1647WAT      O 4962   5.568   0.629   3.917
 1647WAT     H1 4963   5.503   0.602   3.852
 1647WAT     H2 4964   5.652   0.618   3.872
 1648WAT      O 4965   5.672   0.668   4.371
 1648WAT     H1 4966   5.709   0.659   4.459
 1648WAT     H2 4967   5.615   0.591   4.361
 1649WAT      O 4968   5.627   0.359   4.761
 1649WAT     H1 4969   5.538   0.355   4.795
 1649WAT     H2 4970   5.681   0.379   4.838
 1650WAT      O 4971   5.490   0.350   3.511
 1650WAT     H1 4972   5.399   0.376   3.494
 1650WAT     H2 4973   5.538   0.377   3.433
 1651WAT      O 4974   5.744   0.256   3.302
 1651WAT     H1 4975   5.815   0.214   3.253
 1651WAT     H2 4976   5.672   0.262   3.239
 1652WAT      O 4977   5.813   1.119   4.887
 1652WAT     H1 4978   5.809   1.082   4.975
 1652WAT     H2 4979   5.827   1.213   4.901
 1653WAT      O 4980   6.184   1.274   4.447
 1653WAT     H1 4981   6.159   1.301   4.358
 1653WAT     H2 4982   6.278   1.292   4.453
 1654WAT      O 4983   5.797   1.414   4.599
 1654WAT     H1 4984   5.738   1.400   4.673
 1654WAT     H2 4985   5.797   1.330   4.552
 1655WAT      O 4986   5.760   1.150   4.494
 1655WAT     H1 4987   5.688   1.088   4.487
 1655WAT     H2 4988   5.767   1.190   4.407
 1656WAT      O 4989   6.121   1.372   4.173
 1656WAT     H1 4990   6.173   1.310   4.120
 1656WAT     H2 4991   6.186   1.422   4.222
 1657WAT      O 4992   6.395   1.461   4.255
 1657WAT     H1 4993   6.424   1.435   4.168
 1657WAT     H2 4994   6.446   1.405   4.314
 1658WAT      O 4995   5.589   1.482   3.815
 1658WAT     H1 4996   5.572   1.419   3.885
 1658WAT     H2 4997   5.502   1.502   3.780
 1659WAT      O 4998   5.749   1.351   3.559
 1659WAT     H1 4999   5.697   1.389   3.489
 1659WAT     H2 5000   5.742   1.414   3.632
 1660WAT      O 5001   6.402   1.553   4.992
 1660WAT     H1 5002   6.494   1.529   4.996
 1660WAT     H2 5003   6.400   1.636   4.944
 1661WAT      O 5004   6.009   1.546   3.447
 1661WAT     H1 5005   6.083   1.518   3.392
 1661WAT     H2 5006   6.035   1.522   3.536
 1662WAT      O 5007   5.925   1.158   3.447
 1662WAT     H1 5008   5.863   1.205   3.502
 1662WAT     H2 5009   5.937   1.073   3.491
 1663WAT      O 5010   6.671   0.563   2.062
 1663WAT     H1 5011   6.663   0.471   2.035
 1663WAT     H2 5012   6.630   0.612   1.992
 1664WAT      O 5013   6.484   0.740   2.251
 1664WAT     H1 5014   6.407   0.693   2.280
 1664WAT     H2 5015   6.549   0.673   2.233
 1665WAT      O 5016   5.886   0.772   2.338
 1665WAT     H1 5017   5.803   0.746   2.378
 1665WAT     H2 5018   5.947   0.779   2.412
 1666WAT      O 5019   6.886   1.181   2.129
 1666WAT     H1 5020   6.840   1.104   2.161
 1666WAT     H2 5021   6.967   1.184   2.179
 1667WAT      O 5022   5.884   1.175   2.358
 1667WAT     H1 5023   5.914   1.086   2.340
 1667WAT     H2 5024   5.958   1.231   2.335
 1668WAT      O 5025   5.727   0.268   1.717
 1668WAT     H1 5026   5.638   0.302   1.707
 1668WAT     H2 5027   5.755   0.248   1.628
 1669WAT      O 5028   5.523   0.528   2.305
 1669WAT     H1 5029   5.580   0.451   2.305
 1669WAT     H2 5030   5.523   0.558   2.214
 1670WAT      O 5031   6.509   1.410   2.091
 1670WAT     H1 5032   6.447   1.455   2.034
 1670WAT     H2 5033   6.594   1.425   2.050
 1671WAT      O 5034   6.428   1.008   2.251
 1671WAT     H1 5035   6.421   0.914   2.235
 1671WAT     H2 5036   6.504   1.017   2.308
 1672WAT      O 5037   6.531   0.289   2.274
 1672WAT     H1 5038   6.569   0.201   2.263
 1672WAT     H2 5039   6.521   0.322   2.185
 1673WAT      O 5040   5.709   0.318   2.345
 1673WAT     H1 5041   5.777   0.345   2.407
 1673WAT     H2 5042   5.678   0.234   2.378
 1674WAT      O 5043   6.128   0.423   2.253
 1674WAT     H1 5044   6.179   0.473   2.317
 1674WAT     H2 5045   6.182   0.345   2.236
 1675WAT      O 5046   6.595   0.898   1.830
 1675WAT     H1 5047   6.534   0.945   1.774
 1675WAT     H2 5048   6.647   0.967   1.872
 1676WAT      O 5049   6.082   0.851   2.498
 1676WAT     H1 5050   6.048   0.914   2.562
 1676WAT     H2 5051   6.099   0.903   2.420
 1677WAT      O 5052   6.933   0.232   2.245
 1677WAT     H1 5053   6.863   0.261   2.303
 1677WAT     H2 5054   6.969   0.313   2.208
 1678WAT      O 5055   6.003   1.048   2.679
 1678WAT     H1 5056   6.065   1.115   2.651
 1678WAT     H2 5057   5.917   1.089   2.670
 1679WAT      O 5058   5.532   0.967   1.567
 1679WAT     H1 5059   5.495   1.016   1.494
 1679WAT     H2 5060   5.558   1.034   1.630
 1680WAT      O 5061   6.848   1.378   2.342
 1680WAT     H1 5062   6.850   1.338   2.255
 1680WAT     H2 5063   6.793   1.456   2.332
 1681WAT      O 5064   6.978   1.051   1.851
 1681WAT     H1 5065   6.967   0.956   1.864
 1681WAT     H2 5066   6.977   1.087   1.940
 1682WAT      O 5067   6.788   0.869   2.475
 1682WAT     H1 5068   6.830   0.847   2.392
 1682WAT     H2 5069   6.861   0.895   2.532
 1683WAT      O 5070   6.532   0.613   1.787
 1683WAT     H1 5071   6.439   0.607   1.810
 1683WAT     H2 5072   6.547   0.707   1.775
 1684WAT      O 5073   6.531   0.240   1.486
 1684WAT     H1 5074   6.437   0.257   1.495
 1684WAT     H2 5075   6.563   0.312   1.432
 1685WAT      O 5076   6.935   0.769   1.837
 1685WAT     H1 5077   6.873   0.736   1.772
 1685WAT     H2 5078   6.933   0.705   1.908
 1686WAT      O 5079   6.879   0.387   2.579
 1686WAT     H1 5080   6.838   0.470   2.604
 1686WAT     H2 5081   6.806   0.329   2.560
 1687WAT      O 5082   6.093   0.666   2.065
 1687WAT     H1 5083   6.052   0.595   2.015
 1687WAT     H2 5084   6.101   0.631   2.154
 1688WAT      O 5085   6.139   1.035   2.281
 1688WAT     H1 5086   6.110   0.974   2.213
 1688WAT     H2 5087   6.234   1.038   2.270
 1689WAT      O 5088   5.964   0.343   2.443
 1689WAT     H1 5089   6.019   0.354   2.365
 1689WAT     H2 5090   6.015   0.381   2.514
 1690WAT      O 5091   6.948   1.392   2.648
 1690WAT     H1 5092   6.901   1.473   2.628
 1690WAT     H2 5093   6.880   1.327   2.663
 1691WAT      O 5094   6.049   1.008   2.946
 1691WAT     H1 5095   5.959   1.031   2.971
 1691WAT     H2 5096   6.051   1.021   2.852
 1692WAT      O 5097   6.753   0.693   1.538
 1692WAT     H1 5098   6.797   0.610   1.523
 1692WAT     H2 5099   6.824   0.757   1.546
 1693WAT      O 5100   5.931   0.696   2.804
 1693WAT     H1 5101   5.917   0.783   2.841
 1693WAT     H2 5102   5.843   0.661   2.789
 1694WAT      O 5103   6.564   1.187   1.935
 1694WAT     H1 5104   6.608   1.262   1.893
 1694WAT     H2 5105   6.557   1.212   2.027
 1695WAT      O 5106   6.111   1.290   3.025
 1695WAT     H1 5107   6.108   1.330   2.938
 1695WAT     H2 5108   6.095   1.197   3.009
 1696WAT      O 5109   5.763   0.555   1.815
 1696WAT     H1 5110   5.751   0.628   1.754
 1696WAT     H2 5111   5.732   0.478   1.767
 1697WAT      O 5112   5.526   0.873   2.396
 1697WAT     H1 5113   5.534   0.886   2.301
 1697WAT     H2 5114   5.588   0.802   2.415
 1698WAT      O 5115   5.651   1.043   2.037
 1698WAT     H1 5116   5.610   1.057   1.951
 1698WAT     H2 5117   5.740   1.014   2.016
 1699WAT      O 5118   6.633   1.457   2.727
 1699WAT     H1 5119   6.684   1.449   2.808
 1699WAT     H2 5120   6.548   1.492   2.757
 1700WAT      O 5121   6.830   1.486   1.670
 1700WAT     H1 5122   6.814   1.457   1.760
 1700WAT     H2 5123   6.814   1.408   1.617
 1701WAT      O 5124   6.078   1.464   1.848
 1701WAT     H1 5125   6.061   1.372   1.827
 1701WAT     H2 5126   5.993   1.500   1.872
 1702WAT      O 5127   6.801   1.237   1.526
 1702WAT     H1 5128   6.731   1.237   1.460
 1702WAT     H2 5129   6.875   1.194   1.483
 1703WAT      O 5130   6.757   1.400   1.934
 1703WAT     H1 5131   6.803   1.321   1.965
 1703WAT     H2 5132   6.791   1.471   1.988
 1704WAT      O 5133   5.532   0.977   2.650
 1704WAT     H1 5134   5.548   0.930   2.568
 1704WAT     H2 5135   5.579   0.926   2.716
 1705WAT      O 5136   6.938   0.299   2.827
 1705WAT     H1 5137   6.853   0.269   2.859
 1705WAT     H2 5138   6.922   0.323   2.735
 1706WAT      O 5139   6.648   0.449   3.037
 1706WAT     H1 5140   6.680   0.365   3.003
 1706WAT     H2 5141   6.726   0.501   3.051
 1707WAT      O 5142   5.988   0.402   1.926
 1707WAT     H1 5143   5.966   0.380   2.017
 1707WAT     H2 5144   5.910   0.445   1.892
 1708WAT      O 5145   6.711   0.403   1.786
 1708WAT     H1 5146   6.651   0.475   1.768
 1708WAT     H2 5147   6.766   0.396   1.708
 1709WAT      O 5148   6.232   0.492   2.993
 1709WAT     H1 5149   6.223   0.398   2.978
 1709WAT     H2 5150   6.317   0.514   2.953
 1710WAT      O 5151   6.572   0.266   1.989
 1710WAT     H1 5152   6.611   0.298   1.908
 1710WAT     H2 5153   6.608   0.178   2.000
 1711WAT      O 5154   5.494   0.320   1.332
 1711WAT     H1 5155   5.486   0.414   1.346
 1711WAT     H2 5156   5.459   0.305   1.244
 1712WAT      O 5157   6.631   0.525   2.399
 1712WAT     H1 5158   6.557   0.576   2.433
 1712WAT     H2 5159   6.591   0.444   2.368
 1713WAT      O 5160   6.281   0.293   1.538
 1713WAT     H1 5161   6.293   0.289   1.633
 1713WAT     H2 5162   6.242   0.379   1.523
 1714WAT      O 5163   6.182   0.524   1.478
 1714WAT     H1 5164   6.125   0.479   1.415
 1714WAT     H2 5165   6.253   0.560   1.425
 1715WAT      O 5166   5.689   0.914   2.866
 1715WAT     H1 5167   5.651   0.850   2.925
 1715WAT     H2 5168   5.721   0.985   2.923
 1716WAT      O 5169   6.304   0.599   2.414
 1716WAT     H1 5170   6.341   0.552   2.488
 1716WAT     H2 5171   6.285   0.686   2.448
 1717WAT      O 5172   6.083   0.503   2.646
 1717WAT     H1 5173   6.053   0.591   2.668
 1717WAT     H2 5174   6.179   0.509   2.649
 1718WAT      O 5175   5.936   0.924   1.705
 1718WAT     H1 5176   5.859   0.870   1.689
 1718WAT     H2 5177   6.009   0.872   1.671
 1719WAT      O 5178   6.550   0.830   2.873
 1719WAT     H1 5179   6.544   0.738   2.848
 1719WAT     H2 5180   6.487   0.840   2.945
 1720WAT      O 5181   6.830   0.400   1.528
 1720WAT     H1 5182   6.919   0.431   1.511
 1720WAT     H2 5183   6.827   0.313   1.489
 1721WAT      O 5184   5.941   0.890   2.069
 1721WAT     H1 5185   5.992   0.810   2.064
 1721WAT     H2 5186   5.895   0.884   2.153
 1722WAT      O 5187   6.429   1.017   1.596
 1722WAT     H1 5188   6.463   1.092   1.547
 1722WAT     H2 5189   6.346   1.048   1.633
 1723WAT      O 5190   5.689   0.587   2.760
 1723WAT     H1 5191   5.653   0.654   2.819
 1723WAT     H2 5192   5.660   0.504   2.797
 1724WAT      O 5193   6.009   0.633   3.049
 1724WAT     H1 5194   5.979   0.647   2.959
 1724WAT     H2 5195   6.086   0.577   3.039
 1725WAT      O 5196   6.543   1.113   2.848
 1725WAT     H1 5197   6.545   1.019   2.826
 1725WAT     H2 5198   6.473   1.121   2.912
 1726WAT      O 5199   6.718   0.949   2.133
 1726WAT     H1 5200   6.753   0.890   2.067
 1726WAT     H2 5201   6.629   0.917   2.150
 1727WAT      O 5202   6.326   1.025   1.873
 1727WAT     H1 5203   6.395   1.080   1.912
 1727WAT     H2 5204   6.248   1.080   1.877
 1728WAT      O 5205   5.540   0.587   1.423
 1728WAT     H1 5206   5.627   0.615   1.451
 1728WAT     H2 5207   5.491   0.668   1.411
 1729WAT      O 5208   6.256   0.726   1.835
 1729WAT     H1 5209   6.302   0.807   1.857
 1729WAT     H2 5210   6.221   0.694   1.918
 1730WAT      O 5211   6.487   1.277   2.558
 1730WAT     H1 5212   6.551   1.297   2.625
 1730WAT     H2 5213   6.523   1.201   2.512
 1731WAT      O 5214   6.614   1.077   2.429
 1731WAT     H1 5215   6.678   1.007   2.441
 1731WAT     H2 5216   6.667   1.155   2.411
 1732WAT      O 5217   6.792   1.157   2.750
 1732WAT     H1 5218   6.825   1.216   2.818
 1732WAT     H2 5219   6.700   1.144   2.773
 1733WAT      O 5220   5.577   1.508   1.479
 1733WAT     H1 5221   5.613   1.568   1.414
 1733WAT     H2 5222   5.563   1.563   1.557
 1734WAT      O 5223   5.575   1.335   2.927
 1734WAT     H1 5224   5.586   1.241   2.913
 1734WAT     H2 5225   5.510   1.361   2.862
 1735WAT      O 5226   6.374   1.162   3.067
 1735WAT     H1 5227   6.342   1.090   3.121
 1735WAT     H2 5228   6.307   1.230   3.074
 1736WAT      O 5229   6.179   1.247   1.561
 1736WAT     H1 5230   6.178   1.320   1.499
 1736WAT     H2 5231   6.087   1.222   1.570
 1737WAT      O 5232   5.739   0.769   1.635
 1737WAT     H1 5233   5.678   0.843   1.636
 1737WAT     H2 5234   5.786   0.778   1.553
 1738WAT      O 5235   6.477   1.253   1.427
 1738WAT     H1 5236   6.487   1.232   1.334
 1738WAT     H2 5237   6.387   1.227   1.448
 1739WAT      O 5238   6.229   0.309   1.825
 1739WAT     H1 5239   6.159   0.356   1.870
 1739WAT     H2 5240   6.258   0.243   1.889
 1740WAT      O 5241   6.392   0.451   2.625
 1740WAT     H1 5242   6.442   0.498   2.692
 1740WAT     H2 5243   6.406   0.358   2.646
 1741WAT      O 5244   6.341   1.505   1.897
 1741WAT     H1 5245   6.367   1.501   1.804
 1741WAT     H2 5246   6.246   1.492   1.896
 1742WAT      O 5247   6.942   0.597   2.054
 1742WAT     H1 5248   6.848   0.598   2.072
 1742WAT     H2 5249   6.973   0.518   2.099
 1743WAT      O 5250   5.940   0.765   1.410
 1743WAT     H1 5251   6.016   0.754   1.467
 1743WAT     H2 5252   5.947   0.695   1.345
 1744WAT      O 5253   5.809   0.508   1.479
 1744WAT     H1 5254   5.817   0.413   1.490
 1744WAT     H2 5255   5.898   0.541   1.489
 1745WAT      O 5256   5.889   1.523   2.189
 1745WAT     H1 5257   5.963   1.468   2.216
 1745WAT     H2 5258   5.928   1.610   2.175
 1746WAT      O 5259   5.578   1.130   1.776
 1746WAT     H1 5260   5.485   1.154   1.775
 1746WAT     H2 5261   5.624   1.213   1.764
 1747WAT      O 5262   5.790   1.441   3.108
 1747WAT     H1 5263   5.870   1.474   3.149
 1747WAT     H2 5264   5.738   1.405   3.180
 1748WAT      O 5265   6.200   1.440   1.371
 1748WAT     H1 5266   6.280   1.469   1.326
 1748WAT     H2 5267   6.148   1.397   1.303
 1749WAT      O 5268   6.674   1.052   3.103
 1749WAT     H1 5269   6.613   1.055   3.029
 1749WAT     H2 5270   6.643   0.979   3.156
 1750WAT      O 5271   6.817   1.425   2.964
 1750WAT     H1 5272   6.912   1.417   2.959
 1750WAT     H2 5273   6.802   1.492   3.031
 1751WAT      O 5274   5.562   0.690   3.002
 1751WAT     H1 5275   5.612   0.632   3.059
 1751WAT     H2 5276   5.488   0.719   3.056
 1752WAT      O 5277   6.252   0.962   1.358
 1752WAT     H1 5278   6.242   0.901   1.430
 1752WAT     H2 5279   6.235   0.910   1.279
 1753WAT      O 5280   6.267   0.831   2.956
 1753WAT     H1 5281   6.191   0.888   2.947
 1753WAT     H2 5282   6.285   0.802   2.866
 1754WAT      O 5283   6.576   0.869   1.418
 1754WAT     H1 5284   6.521   0.913   1.483
 1754WAT     H2 5285   6.638   0.818   1.470
 1755WAT      O 5286   5.765   0.505   3.092
 1755WAT     H1 5287   5.769   0.475   3.183
 1755WAT     H2 5288   5.851   0.545   3.076
 1756WAT      O 5289   6.143   0.764   1.608
 1756WAT     H1 5290   6.185   0.748   1.692
 1756WAT     H2 5291   6.155   0.683   1.558
 1757WAT      O 5292   5.959   0.362   2.888
 1757WAT     H1 5293   5.906   0.313   2.826
 1757WAT     H2 5294   6.026   0.405   2.835
 1758WAT      O 5295   6.394   0.667   1.333
 1758WAT     H1 5296   6.446   0.595   1.296
 1758WAT     H2 5297   6.459   0.731   1.363
 1759WAT      O 5298   6.849   0.809   2.865
 1759WAT     H1 5299   6.890   0.825   2.950
 1759WAT     H2 5300   6.755   0.822   2.881
 1760WAT      O 5301   6.896   0.543   3.065
 1760WAT     H1 5302   6.954   0.468   3.056
 1760WAT     H2 5303   6.914   0.596   2.988
 1761WAT      O 5304   6.325   0.804   2.662
 1761WAT     H1 5305   6.367   0.889   2.645
 1761WAT     H2 5306   6.233   0.818   2.639
 1762WAT      O 5307   6.559   0.578   2.800
 1762WAT     H1 5308   6.571   0.518   2.874
 1762WAT     H2 5309   6.645   0.581   2.758
 1763WAT      O 5310   6.793   0.633   2.658
 1763WAT     H1 5311   6.740   0.685   2.597
 1763WAT     H2 5312   6.827   0.696   2.721
 1764WAT      O 5313   6.032   0.372   1.302
 1764WAT     H1 5314   6.012   0.285   1.338
 1764WAT     H2 5315   6.015   0.363   1.209
 1765WAT      O 5316   6.110   1.435   2.773
 1765WAT     H1 5317   6.056   1.507   2.741
 1765WAT     H2 5318   6.135   1.387   2.694
 1766WAT      O 5319   6.235   0.232   2.926
 1766WAT     H1 5320   6.294   0.201   2.995
 1766WAT     H2 5321   6.154   0.185   2.942
 1767WAT      O 5322   6.396   1.558   2.799
 1767WAT     H1 5323   6.388   1.649   2.830
 1767WAT     H2 5324   6.306   1.527   2.796
 1768WAT      O 5325   6.451   1.475   1.562
 1768WAT     H1 5326   6.540   1.509   1.564
 1768WAT     H2 5327   6.454   1.403   1.499
 1769WAT      O 5328   5.815   1.012   1.384
 1769WAT     H1 5329   5.858   1.067   1.450
 1769WAT     H2 5330   5.863   0.930   1.385
 1770WAT      O 5331   5.536   1.291   2.130
 1770WAT     H1 5332   5.569   1.204   2.106
 1770WAT     H2 5333   5.579   1.312   2.213
 1771WAT      O 5334   5.996   1.124   1.896
 1771WAT     H1 5335   5.966   1.112   1.986
 1771WAT     H2 5336   5.985   1.038   1.855
 1772WAT      O 5337   5.585   1.378   2.403
 1772WAT     H1 5338   5.541   1.396   2.487
 1772WAT     H2 5339   5.642   1.454   2.389
 1773WAT      O 5340   5.568   0.629   2.039
 1773WAT     H1 5341   5.503   0.602   1.975
 1773WAT     H2 5342   5.652   0.618   1.994
 1774WAT      O 5343   5.672   0.668   2.493
 1774WAT     H1 5344   5.709   0.659   2.581
 1774WAT     H2 5345   5.615   0.591   2.483
 1775WAT      O 5346   5.627   0.359   2.884
 1775WAT     H1 5347   5.538   0.355   2.918
 1775WAT     H2 5348   5.681   0.379   2.960
 1776WAT      O 5349   5.490   0.350   1.634
 1776WAT     H1 5350   5.399   0.376   1.616
 1776WAT     H2 5351   5.538   0.377   1.556
 1777WAT      O 5352   5.744   0.256   1.424
 1777WAT     H1 5353   5.815   0.214   1.376
 1777WAT     H2 5354   5.672   0.262   1.361
 1778WAT      O 5355   5.813   1.119   3.010
 1778WAT     H1 5356   5.809   1.082   3.098
 1778WAT     H2 5357   5.827   1.213   3.024
 1779WAT      O 5358   6.184   1.274   2.570
 1779WAT     H1 5359   6.159   1.301   2.481
 1779WAT     H2 5360   6.278   1.292   2.575
 1780WAT      O 5361   5.797   1.414   2.722
 1780WAT     H1 5362   5.738   1.400   2.795
 1780WAT     H2 5363   5.797   1.330   2.675
 1781WAT      O 5364   5.760   1.150   2.617
 1781WAT     H1 5365   5.688   1.088   2.610
 1781WAT     H2 5366   5.767   1.190   2.530
 1782WAT      O 5367   6.121   1.372   2.295
 1782WAT     H1 5368   6.173   1.310   2.243
 1782WAT     H2 5369   6.186   1.422   2.344
 1783WAT      O 5370   6.395   1.461   2.378
 1783WAT     H1 5371   6.424   1.435   2.290
 1783WAT     H2 5372   6.446   1.405   2.437
 1784WAT      O 5373   5.589   1.482   1.938
 1784WAT     H1 5374   5.572   1.419   2.007
 1784WAT     H2 5375   5.502   1.502   1.902
 1785WAT      O 5376   5.749   1.351   1.682
 1785WAT     H1 5377   5.697   1.389   1.612
 1785WAT     H2 5378   5.742   1.414   1.754
 1786WAT      O 5379   6.402   1.553   3.114
 1786WAT     H1 5380   6.494   1.529   3.119
 1786WAT     H2 5381   6.400   1.636   3.066
 1787WAT      O 5382   6.009   1.546   1.570
 1787WAT     H1 5383   6.083   1.518   1.515
 1787WAT     H2 5384   6.035   1.522   1.659
 1788WAT      O 5385   5.925   1.158   1.570
 1788WAT     H1 5386   5.863   1.205   1.625
 1788WAT     H2 5387   5.937   1.073   1.613
 1789WAT      O 5388   6.484   0.740   0.373
 1789WAT     H1 5389   6.407   0.693   0.402
 1789WAT     H2 5390   6.549   0.673   0.356
 1790WAT      O 5391   5.886   0.772   0.461
 1790WAT     H1 5392   5.803   0.746   0.501
 1790WAT     H2 5393   5.947   0.779   0.534
 1791WAT      O 5394   6.886   1.181   0.251
 1791WAT     H1 5395   6.840   1.104   0.284
 1791WAT     H2 5396   6.967   1.184   0.302
 1792WAT      O 5397   5.884   1.175   0.480
 1792WAT     H1 5398   5.914   1.086   0.463
 1792WAT     H2 5399   5.958   1.231   0.458
 1793WAT      O 5400   5.523   0.528   0.428
 1793WAT     H1 5401   5.580   0.451   0.428
 1793WAT     H2 5402   5.523   0.558   0.337
 1794WAT      O 5403   6.428   1.008   0.374
 1794WAT     H1 5404   6.421   0.914   0.358
 1794WAT     H2 5405   6.504   1.017   0.431
 1795WAT      O 5406   6.531   0.289   0.397
 1795WAT     H1 5407   6.569   0.201   0.385
 1795WAT     H2 5408   6.521   0.322   0.307
 1796WAT      O 5409   5.709   0.318   0.467
 1796WAT     H1 5410   5.777   0.345   0.529
 1796WAT     H2 5411   5.678   0.234   0.501
 1797WAT      O 5412   6.128   0.423   0.376
 1797WAT     H1 5413   6.179   0.473   0.440
 1797WAT     H2 5414   6.182   0.345   0.358
 1798WAT      O 5415   6.082   0.851   0.620
 1798WAT     H1 5416   6.048   0.914   0.685
 1798WAT     H2 5417   6.099   0.903   0.542
 1799WAT      O 5418   6.933   0.232   0.367
 1799WAT     H1 5419   6.863   0.261   0.425
 1799WAT     H2 5420   6.969   0.313   0.331
 1800WAT      O 5421   6.003   1.048   0.802
 1800WAT     H1 5422   6.065   1.115   0.774
 1800WAT     H2 5423   5.917   1.089   0.793
 1801WAT      O 5424   6.848   1.378   0.465
 1801WAT     H1 5425   6.850   1.338   0.378
 1801WAT     H2 5426   6.793   1.456   0.454
 1802WAT      O 5427   6.788   0.869   0.598
 1802WAT     H1 5428   6.830   0.847   0.514
 1802WAT     H2 5429   6.861   0.895   0.655
 1803WAT      O 5430   6.879   0.387   0.701
 1803WAT     H1 5431   6.838   0.470   0.727
 1803WAT     H2 5432   6.806   0.329   0.682
 1804WAT      O 5433   6.139   1.035   0.404
 1804WAT     H1 5434   6.110   0.974   0.336
 1804WAT     H2 5435   6.234   1.038   0.393
 1805WAT      O 5436   5.964   0.343   0.566
 1805WAT     H1 5437   6.019   0.354   0.488
 1805WAT     H2 5438   6.015   0.381   0.637
 1806WAT      O 5439   6.948   1.392   0.770
 1806WAT     H1 5440   6.901   1.473   0.751
 1806WAT     H2 5441   6.880   1.327   0.785
 1807WAT      O 5442   6.049   1.008   1.069
 1807WAT     H1 5443   5.959   1.031   1.094
 1807WAT     H2 5444   6.051   1.021   0.974
 1808WAT      O 5445   5.931   0.696   0.927
 1808WAT     H1 5446   5.917   0.783   0.963
 1808WAT     H2 5447   5.843   0.661   0.912
 1809WAT      O 5448   6.111   1.290   1.147
 1809WAT     H1 5449   6.108   1.330   1.061
 1809WAT     H2 5450   6.095   1.197   1.131
 1810WAT      O 5451   5.526   0.873   0.518
 1810WAT     H1 5452   5.534   0.886   0.424
 1810WAT     H2 5453   5.588   0.802   0.538
 1811WAT      O 5454   6.633   1.457   0.850
 1811WAT     H1 5455   6.684   1.449   0.930
 1811WAT     H2 5456   6.548   1.492   0.879
 1812WAT      O 5457   5.532   0.977   0.772
 1812WAT     H1 5458   5.548   0.930   0.690
 1812WAT     H2 5459   5.579   0.926   0.839
 1813WAT      O 5460   6.938   0.299   0.949
 1813WAT     H1 5461   6.853   0.269   0.981
 1813WAT     H2 5462   6.922   0.323   0.858
 1814WAT      O 5463   6.648   0.449   1.159
 1814WAT     H1 5464   6.680   0.365   1.125
 1814WAT     H2 5465   6.726   0.501   1.174
 1815WAT      O 5466   6.232   0.492   1.115
 1815WAT     H1 5467   6.223   0.398   1.100
 1815WAT     H2 5468   6.317   0.514   1.076
 1816WAT      O 5469   6.631   0.525   0.521
 1816WAT     H1 5470   6.557   0.576   0.556
 1816WAT     H2 5471   6.591   0.444   0.491
 1817WAT      O 5472   5.689   0.914   0.988
 1817WAT     H1 5473   5.651   0.850   1.048
 1817WAT     H2 5474   5.721   0.985   1.045
 1818WAT      O 5475   6.304   0.599   0.536
 1818WAT     H1 5476   6.341   0.552   0.611
 1818WAT     H2 5477   6.285   0.686   0.570
 1819WAT      O 5478   6.083   0.503   0.768
 1819WAT     H1 5479   6.053   0.591   0.791
 1819WAT     H2 5480   6.179   0.509   0.772
 1820WAT      O 5481   6.550   0.830   0.996
 1820WAT     H1 5482   6.544   0.738   0.970
 1820WAT     H2 5483   6.487   0.840   1.067
 1821WAT      O 5484   5.941   0.890   0.192
 1821WAT     H1 5485   5.992   0.810   0.186
 1821WAT     H2 5486   5.895   0.884   0.276
 1822WAT      O 5487   5.689   0.587   0.883
 1822WAT     H1 5488   5.653   0.654   0.942
 1822WAT     H2 5489   5.660   0.504   0.920
 1823WAT      O 5490   6.009   0.633   1.171
 1823WAT     H1 5491   5.979   0.647   1.081
 1823WAT     H2 5492   6.086   0.577   1.162
 1824WAT      O 5493   6.543   1.113   0.971
 1824WAT     H1 5494   6.545   1.019   0.949
 1824WAT     H2 5495   6.473   1.121   1.035
 1825WAT      O 5496   6.718   0.949   0.255
 1825WAT     H1 5497   6.753   0.890   0.189
 1825WAT     H2 5498   6.629   0.917   0.272
 1826WAT      O 5499   6.487   1.277   0.680
 1826WAT     H1 5500   6.551   1.297   0.748
 1826WAT     H2 5501   6.523   1.201   0.635
 1827WAT      O 5502   6.614   1.077   0.552
 1827WAT     H1 5503   6.678   1.007   0.563
 1827WAT     H2 5504   6.667   1.155   0.534
 1828WAT      O 5505   6.792   1.157   0.872
 1828WAT     H1 5506   6.825   1.216   0.940
 1828WAT     H2 5507   6.700   1.144   0.895
 1829WAT      O 5508   5.575   1.335   1.049
 1829WAT     H1 5509   5.586   1.241   1.035
 1829WAT     H2 5510   5.510   1.361   0.984
 1830WAT      O 5511   6.374   1.162   1.189
 1830WAT     H1 5512   6.342   1.090   1.244
 1830WAT     H2 5513   6.307   1.230   1.197
 1831WAT      O 5514   6.392   0.451   0.748
 1831WAT     H1 5515   6.442   0.498   0.814
 1831WAT     H2 5516   6.406   0.358   0.769
 1832WAT      O 5517   6.942   0.597   0.177
 1832WAT     H1 5518   6.848   0.598   0.194
 1832WAT     H2 5519   6.973   0.518   0.221
 1833WAT      O 5520   5.889   1.523   0.312
 1833WAT     H1 5521   5.963   1.468   0.339
 1833WAT     H2 5522   5.928   1.610   0.298
 1834WAT      O 5523   5.790   1.441   1.230
 1834WAT     H1 5524   5.870   1.474   1.272
 1834WAT     H2 5525   5.738   1.405   1.303
 1835WAT      O 5526   6.674   1.052   1.225
 1835WAT     H1 5527   6.613   1.055   1.151
 1835WAT     H2 5528   6.643   0.979   1.279
 1836WAT      O 5529   6.817   1.425   1.086
 1836WAT     H1 5530   6.912   1.417   1.081
 1836WAT     H2 5531   6.802   1.492   1.154
 1837WAT      O 5532   5.562   0.690   1.125
 1837WAT     H1 5533   5.612   0.632   1.182
 1837WAT     H2 5534   5.488   0.719   1.179
 1838WAT      O 5535   6.267   0.831   1.078
 1838WAT     H1 5536   6.191   0.888   1.070
 1838WAT     H2 5537   6.285   0.802   0.989
 1839WAT      O 5538   5.765   0.505   1.214
 1839WAT     H1 5539   5.769   0.475   1.305
 1839WAT     H2 5540   5.851   0.545   1.198
 1840WAT      O 5541   5.959   0.362   1.011
 1840WAT     H1 5542   5.906   0.313   0.948
 1840WAT     H2 5543   6.026   0.405   0.958
 1841WAT      O 5544   6.849   0.809   0.987
 1841WAT     H1 5545   6.890   0.825   1.072
 1841WAT     H2 5546   6.755   0.822   1.004
 1842WAT      O 5547   6.896   0.543   1.188
 1842WAT     H1 5548   6.954   0.468   1.179
 1842WAT     H2 5549   6.914   0.596   1.110
 1843WAT      O 5550   6.325   0.804   0.784
 1843WAT     H1 5551   6.367   0.889   0.767
 1843WAT     H2 5552   6.233   0.818   0.761
 1844WAT      O 5553   6.559   0.578   0.923
 1844WAT     H1 5554   6.571   0.518   0.997
 1844WAT     H2 5555   6.645   0.581   0.881
 1845WAT      O 5556   6.793   0.633   0.780
 1845WAT     H1 5557   6.740   0.685   0.720
 1845WAT     H2 5558   6.827   0.696   0.843
 1846WAT      O 5559   6.110   1.435   0.896
 1846WAT     H1 5560   6.056   1.507   0.864
 1846WAT     H2 5561   6.135   1.387   0.817
 1847WAT      O 5562   6.235   0.232   1.049
 1847WAT     H1 5563   6.294   0.201   1.117
 1847WAT     H2 5564   6.154   0.185   1.064
 1848WAT      O 5565   6.396   1.558   0.922
 1848WAT     H1 5566   6.388   1.649   0.953
 1848WAT     H2 5567   6.306   1.527   0.919
 1849WAT      O 5568   5.536   1.291   0.252
 1849WAT     H1 5569   5.569   1.204   0.229
 1849WAT     H2 5570   5.579   1.312   0.335
 1850WAT      O 5571   5.585   1.378   0.526
 1850WAT     H1 5572   5.541   1.396   0.609
 1850WAT     H2 5573   5.642   1.454   0.512
 1851WAT      O 5574   5.672   0.668   0.616
 1851WAT     H1 5575   5.709   0.659   0.704
 1851WAT     H2 5576   5.615   0.591   0.606
 1852WAT      O 5577   5.627   0.359   1.006
 1852WAT     H1 5578   5.538   0.355   1.040
 1852WAT     H2 5579   5.681   0.379   1.083
 1853WAT      O 5580   5.813   1.119   1.132
 1853WAT     H1 5581   5.809   1.082   1.220
 1853WAT     H2 5582   5.827   1.213   1.146
 1854WAT      O 5583   6.184   1.274   0.692
 1854WAT     H1 5584   6.159   1.301   0.603
 1854WAT     H2 5585   6.278   1.292   0.698
 1855WAT      O 5586   5.797   1.414   0.844
 1855WAT     H1 5587   5.738   1.400   0.918
 1855WAT     H2 5588   5.797   1.330   0.797
 1856WAT      O 5589   5.760   1.150   0.739
 1856WAT     H1 5590   5.688   1.088   0.732
 1856WAT     H2 5591   5.767   1.190   0.652
 1857WAT      O 5592   6.121   1.372   0.418
 1857WAT     H1 5593   6.173   1.310   0.365
 1857WAT     H2 5594   6.186   1.422   0.467
 1858WAT      O 5595   6.395   1.461   0.500
 1858WAT     H1 5596   6.424   1.435   0.413
 1858WAT     H2 5597   6.446   1.405   0.559
 1859WAT      O 5598   6.402   1.553   1.237
 1859WAT     H1 5599   6.494   1.529   1.241
 1859WAT     H2 5600   6.400   1.636   1.189
 1860WAT      O 5601   4.794   6.195   5.817
 1860WAT     H1 5602   4.785   6.104   5.790
 1860WAT     H2 5603   4.752   6.245   5.747
 1861WAT      O 5604   4.607   6.373   6.005
 1861WAT     H1 5605   4.529   6.325   6.034
 1861WAT     H2 5606   4.672   6.305   5.988
 1862WAT      O 5607   3.849   5.900   5.472
 1862WAT     H1 5608   3.760   5.934   5.461
 1862WAT     H2 5609   3.878   5.880   5.382
 1863WAT      O 5610   3.646   6.160   6.060
 1863WAT     H1 5611   3.703   6.083   6.060
 1863WAT     H2 5612   3.646   6.190   5.969
 1864WAT      O 5613   4.551   6.640   6.006
 1864WAT     H1 5614   4.544   6.546   5.990
 1864WAT     H2 5615   4.627   6.649   6.063
 1865WAT      O 5616   4.654   5.921   6.029
 1865WAT     H1 5617   4.691   5.834   6.018
 1865WAT     H2 5618   4.644   5.955   5.940
 1866WAT      O 5619   4.067   5.758   5.575
 1866WAT     H1 5620   4.078   5.848   5.606
 1866WAT     H2 5621   3.976   5.754   5.546
 1867WAT      O 5622   5.032   5.671   5.722
 1867WAT     H1 5623   5.114   5.622   5.726
 1867WAT     H2 5624   5.035   5.730   5.797
 1868WAT      O 5625   4.251   6.055   6.008
 1868WAT     H1 5626   4.302   6.105   6.072
 1868WAT     H2 5627   4.304   5.978   5.991
 1869WAT      O 5628   4.718   6.530   5.585
 1869WAT     H1 5629   4.656   6.577   5.528
 1869WAT     H2 5630   4.769   6.600   5.626
 1870WAT      O 5631   5.056   5.865   5.999
 1870WAT     H1 5632   4.985   5.893   6.057
 1870WAT     H2 5633   5.092   5.946   5.963
 1871WAT      O 5634   3.655   6.599   5.322
 1871WAT     H1 5635   3.617   6.648   5.249
 1871WAT     H2 5636   3.681   6.666   5.385
 1872WAT      O 5637   5.363   5.809   6.038
 1872WAT     H1 5638   5.268   5.813   6.052
 1872WAT     H2 5639   5.395   5.891   6.077
 1873WAT      O 5640   4.416   5.439   5.868
 1873WAT     H1 5641   4.447   5.384   5.796
 1873WAT     H2 5642   4.323   5.453   5.850
 1874WAT      O 5643   5.100   6.683   5.606
 1874WAT     H1 5644   5.089   6.589   5.618
 1874WAT     H2 5645   5.100   6.719   5.695
 1875WAT      O 5646   4.655   6.246   5.542
 1875WAT     H1 5647   4.562   6.239   5.565
 1875WAT     H2 5648   4.670   6.339   5.530
 1876WAT      O 5649   4.653   5.873   5.241
 1876WAT     H1 5650   4.559   5.889   5.250
 1876WAT     H2 5651   4.685   5.945   5.187
 1877WAT      O 5652   5.058   6.402   5.592
 1877WAT     H1 5653   4.996   6.368   5.527
 1877WAT     H2 5654   5.056   6.337   5.663
 1878WAT      O 5655   4.215   6.298   5.820
 1878WAT     H1 5656   4.175   6.227   5.770
 1878WAT     H2 5657   4.224   6.264   5.909
 1879WAT      O 5658   4.262   6.667   6.036
 1879WAT     H1 5659   4.232   6.606   5.968
 1879WAT     H2 5660   4.357   6.671   6.025
 1880WAT      O 5661   4.875   6.326   5.293
 1880WAT     H1 5662   4.919   6.242   5.278
 1880WAT     H2 5663   4.946   6.389   5.301
 1881WAT      O 5664   5.233   5.451   5.124
 1881WAT     H1 5665   5.202   5.460   5.214
 1881WAT     H2 5666   5.309   5.509   5.119
 1882WAT      O 5667   3.885   6.188   5.570
 1882WAT     H1 5668   3.873   6.260   5.509
 1882WAT     H2 5669   3.854   6.111   5.522
 1883WAT      O 5670   3.774   6.675   5.792
 1883WAT     H1 5671   3.733   6.689   5.706
 1883WAT     H2 5672   3.863   6.646   5.771
 1884WAT      O 5673   4.132   5.522   5.908
 1884WAT     H1 5674   4.088   5.600   5.875
 1884WAT     H2 5675   4.188   5.554   5.979
 1885WAT      O 5676   4.443   5.484   5.396
 1885WAT     H1 5677   4.381   5.484   5.469
 1885WAT     H2 5678   4.435   5.397   5.357
 1886WAT      O 5679   4.336   5.577   6.094
 1886WAT     H1 5680   4.365   5.667   6.086
 1886WAT     H2 5681   4.390   5.528   6.033
 1887WAT      O 5682   4.111   6.034   5.681
 1887WAT     H1 5683   4.088   6.013   5.771
 1887WAT     H2 5684   4.033   6.078   5.646
 1888WAT      O 5685   4.834   6.035   5.541
 1888WAT     H1 5686   4.774   6.107   5.522
 1888WAT     H2 5687   4.889   6.029   5.463
 1889WAT      O 5688   4.695   5.899   5.744
 1889WAT     H1 5689   4.734   5.930   5.663
 1889WAT     H2 5690   4.731   5.811   5.755
 1890WAT      O 5691   3.598   5.558   5.966
 1890WAT     H1 5692   3.569   5.615   6.037
 1890WAT     H2 5693   3.673   5.510   6.002
 1891WAT      O 5694   3.617   5.952   5.087
 1891WAT     H1 5695   3.609   6.046   5.101
 1891WAT     H2 5696   3.582   5.938   4.999
 1892WAT      O 5697   4.397   5.825   5.994
 1892WAT     H1 5698   4.397   5.781   5.909
 1892WAT     H2 5699   4.486   5.857   6.005
 1893WAT      O 5700   3.982   5.814   5.890
 1893WAT     H1 5701   3.948   5.861   5.966
 1893WAT     H2 5702   3.906   5.768   5.854
 1894WAT      O 5703   4.403   5.925   5.293
 1894WAT     H1 5704   4.415   5.921   5.388
 1894WAT     H2 5705   4.365   6.012   5.277
 1895WAT      O 5706   4.304   6.156   5.233
 1895WAT     H1 5707   4.248   6.112   5.170
 1895WAT     H2 5708   4.375   6.192   5.179
 1896WAT      O 5709   3.713   5.706   5.782
 1896WAT     H1 5710   3.685   5.669   5.865
 1896WAT     H2 5711   3.707   5.633   5.720
 1897WAT      O 5712   4.059   6.556   5.460
 1897WAT     H1 5713   3.981   6.502   5.444
 1897WAT     H2 5714   4.132   6.504   5.426
 1898WAT      O 5715   5.135   6.456   6.039
 1898WAT     H1 5716   5.207   6.505   6.000
 1898WAT     H2 5717   5.115   6.388   5.975
 1899WAT      O 5718   4.681   5.595   5.454
 1899WAT     H1 5719   4.599   5.545   5.446
 1899WAT     H2 5720   4.661   5.679   5.412
 1900WAT      O 5721   4.952   6.032   5.283
 1900WAT     H1 5722   5.041   6.063   5.266
 1900WAT     H2 5723   4.949   5.945   5.244
 1901WAT      O 5724   4.063   6.523   5.824
 1901WAT     H1 5725   4.115   6.442   5.818
 1901WAT     H2 5726   4.018   6.517   5.908
 1902WAT      O 5727   4.552   6.649   5.351
 1902WAT     H1 5728   4.586   6.724   5.302
 1902WAT     H2 5729   4.469   6.681   5.387
 1903WAT      O 5730   5.179   6.163   5.230
 1903WAT     H1 5731   5.171   6.206   5.145
 1903WAT     H2 5732   5.251   6.209   5.273
 1904WAT      O 5733   4.840   6.582   5.888
 1904WAT     H1 5734   4.875   6.522   5.822
 1904WAT     H2 5735   4.752   6.549   5.905
 1905WAT      O 5736   4.449   6.658   5.628
 1905WAT     H1 5737   4.518   6.712   5.666
 1905WAT     H2 5738   4.370   6.712   5.632
 1906WAT      O 5739   3.663   6.219   5.177
 1906WAT     H1 5740   3.750   6.248   5.206
 1906WAT     H2 5741   3.614   6.301   5.166
 1907WAT      O 5742   4.379   6.358   5.590
 1907WAT     H1 5743   4.425   6.439   5.612
 1907WAT     H2 5744   4.344   6.326   5.673
 1908WAT      O 5745   3.969   5.392   5.637
 1908WAT     H1 5746   3.956   5.392   5.732
 1908WAT     H2 5747   3.887   5.426   5.602
 1909WAT      O 5748   5.121   6.738   5.157
 1909WAT     H1 5749   5.099   6.666   5.216
 1909WAT     H2 5750   5.082   6.713   5.073
 1910WAT      O 5751   5.079   6.530   5.323
 1910WAT     H1 5752   5.051   6.576   5.402
 1910WAT     H2 5753   5.159   6.484   5.350
 1911WAT      O 5754   3.861   6.401   5.390
 1911WAT     H1 5755   3.800   6.475   5.391
 1911WAT     H2 5756   3.909   6.410   5.308
 1912WAT      O 5757   5.155   5.713   5.439
 1912WAT     H1 5758   5.092   5.724   5.367
 1912WAT     H2 5759   5.106   5.735   5.518
 1913WAT      O 5760   4.352   5.941   5.580
 1913WAT     H1 5761   4.281   5.988   5.624
 1913WAT     H2 5762   4.380   5.875   5.644
 1914WAT      O 5763   4.755   5.613   5.724
 1914WAT     H1 5764   4.743   5.615   5.629
 1914WAT     H2 5765   4.850   5.618   5.736
 1915WAT      O 5766   4.172   5.772   5.318
 1915WAT     H1 5767   4.257   5.816   5.311
 1915WAT     H2 5768   4.136   5.803   5.401
 1916WAT      O 5769   5.064   6.229   5.809
 1916WAT     H1 5770   4.970   6.230   5.827
 1916WAT     H2 5771   5.096   6.150   5.854
 1917WAT      O 5772   4.062   6.397   5.165
 1917WAT     H1 5773   4.139   6.386   5.221
 1917WAT     H2 5774   4.070   6.328   5.100
 1918WAT      O 5775   3.932   6.140   5.234
 1918WAT     H1 5776   3.940   6.046   5.245
 1918WAT     H2 5777   4.021   6.173   5.244
 1919WAT      O 5778   4.375   6.595   5.113
 1919WAT     H1 5779   4.364   6.533   5.185
 1919WAT     H2 5780   4.358   6.542   5.034
 1920WAT      O 5781   4.699   6.501   5.173
 1920WAT     H1 5782   4.644   6.546   5.237
 1920WAT     H2 5783   4.761   6.450   5.225
 1921WAT      O 5784   4.265   6.397   5.363
 1921WAT     H1 5785   4.308   6.380   5.447
 1921WAT     H2 5786   4.278   6.316   5.313
 1922WAT      O 5787   4.517   6.299   5.087
 1922WAT     H1 5788   4.569   6.228   5.051
 1922WAT     H2 5789   4.581   6.363   5.117
 1923WAT      O 5790   4.155   6.004   5.057
 1923WAT     H1 5791   4.135   5.918   5.093
 1923WAT     H2 5792   4.138   5.995   4.963
 1924WAT      O 5793   4.903   5.485   5.310
 1924WAT     H1 5794   4.931   5.401   5.346
 1924WAT     H2 5795   4.826   5.508   5.361
 1925WAT      O 5796   4.035   5.714   5.056
 1925WAT     H1 5797   4.065   5.715   4.965
 1925WAT     H2 5798   4.109   5.679   5.106
 1926WAT      O 5799   4.357   5.608   5.155
 1926WAT     H1 5800   4.322   5.541   5.097
 1926WAT     H2 5801   4.377   5.562   5.236
 1927WAT      O 5802   3.937   6.645   5.139
 1927WAT     H1 5803   3.981   6.699   5.205
 1927WAT     H2 5804   3.986   6.562   5.140
 1928WAT      O 5805   5.341   6.409   5.371
 1928WAT     H1 5806   5.417   6.466   5.382
 1928WAT     H2 5807   5.342   6.352   5.448
 1929WAT      O 5808   3.691   6.261   5.794
 1929WAT     H1 5809   3.625   6.234   5.730
 1929WAT     H2 5810   3.775   6.250   5.749
 1930WAT      O 5811   5.441   6.494   5.856
 1930WAT     H1 5812   5.478   6.416   5.815
 1930WAT     H2 5813   5.505   6.563   5.838
 1931WAT      O 5814   5.346   6.438   5.087
 1931WAT     H1 5815   5.373   6.529   5.074
 1931WAT     H2 5816   5.327   6.432   5.180
 1932WAT      O 5817   4.986   5.741   5.216
 1932WAT     H1 5818   5.027   5.722   5.132
 1932WAT     H2 5819   4.955   5.656   5.247
 1933WAT      O 5820   5.336   6.232   5.586
 1933WAT     H1 5821   5.298   6.155   5.543
 1933WAT     H2 5822   5.263   6.270   5.635
 1934WAT      O 5823   3.612   5.982   5.388
 1934WAT     H1 5824   3.522   6.009   5.371
 1934WAT     H2 5825   3.661   6.009   5.310
 1935WAT      O 5826   5.263   6.055   5.916
 1935WAT     H1 5827   5.315   6.005   5.853
 1935WAT     H2 5828   5.322   6.068   5.991
 1936WAT      O 5829   3.866   5.888   5.179
 1936WAT     H1 5830   3.937   5.846   5.131
 1936WAT     H2 5831   3.795   5.895   5.116
 1937WAT      O 5832   3.831   5.493   5.083
 1937WAT     H1 5833   3.903   5.547   5.115
 1937WAT     H2 5834   3.858   5.466   4.996
 1938WAT      O 5835   5.212   5.980   5.510
 1938WAT     H1 5836   5.262   5.957   5.589
 1938WAT     H2 5837   5.192   5.896   5.468
 1939WAT      O 5838   5.355   5.844   5.763
 1939WAT     H1 5839   5.344   5.828   5.857
 1939WAT     H2 5840   5.431   5.791   5.739
 1940WAT      O 5841   5.444   5.627   5.088
 1940WAT     H1 5842   5.536   5.614   5.067
 1940WAT     H2 5843   5.442   5.635   5.183
 1941WAT      O 5844   5.451   5.704   5.350
 1941WAT     H1 5845   5.372   5.698   5.403
 1941WAT     H2 5846   5.472   5.798   5.349
 1942WAT      O 5847   5.094   5.537   5.995
 1942WAT     H1 5848   5.138   5.532   5.910
 1942WAT     H2 5849   5.067   5.629   6.002
 1943WAT      O 5850   5.281   5.500   5.796
 1943WAT     H1 5851   5.275   5.406   5.781
 1943WAT     H2 5852   5.359   5.511   5.851
 1944WAT      O 5853   3.774   5.497   5.443
 1944WAT     H1 5854   3.849   5.509   5.385
 1944WAT     H2 5855   3.727   5.581   5.438
 1945WAT      O 5856   4.428   5.709   5.742
 1945WAT     H1 5857   4.346   5.671   5.708
 1945WAT     H2 5858   4.478   5.633   5.772
 1946WAT      O 5859   4.878   5.375   5.866
 1946WAT     H1 5860   4.938   5.432   5.913
 1946WAT     H2 5861   4.804   5.432   5.843
 1947WAT      O 5862   5.192   5.415   5.393
 1947WAT     H1 5863   5.212   5.505   5.420
 1947WAT     H2 5864   5.114   5.392   5.442
 1948WAT      O 5865   4.011   5.550   5.297
 1948WAT     H1 5866   4.064   5.471   5.284
 1948WAT     H2 5867   4.074   5.618   5.320
 1949WAT      O 5868   4.230   5.524   5.602
 1949WAT     H1 5869   4.167   5.454   5.619
 1949WAT     H2 5870   4.176   5.600   5.581
 1950WAT      O 5871   4.794   6.195   3.940
 1950WAT     H1 5872   4.785   6.104   3.913
 1950WAT     H2 5873   4.752   6.245   3.869
 1951WAT      O 5874   4.607   6.373   4.128
 1951WAT     H1 5875   4.529   6.325   4.157
 1951WAT     H2 5876   4.672   6.305   4.111
 1952WAT      O 5877   4.008   6.404   4.216
 1952WAT     H1 5878   3.925   6.378   4.256
 1952WAT     H2 5879   4.069   6.411   4.289
 1953WAT      O 5880   3.849   5.900   3.594
 1953WAT     H1 5881   3.760   5.934   3.584
 1953WAT     H2 5882   3.878   5.880   3.505
 1954WAT      O 5883   3.646   6.160   4.183
 1954WAT     H1 5884   3.703   6.083   4.183
 1954WAT     H2 5885   3.646   6.190   4.092
 1955WAT      O 5886   4.551   6.640   4.129
 1955WAT     H1 5887   4.544   6.546   4.113
 1955WAT     H2 5888   4.627   6.649   4.186
 1956WAT      O 5889   3.770   5.701   4.361
 1956WAT     H1 5890   3.752   5.611   4.389
 1956WAT     H2 5891   3.730   5.756   4.429
 1957WAT      O 5892   4.654   5.921   4.151
 1957WAT     H1 5893   4.691   5.834   4.140
 1957WAT     H2 5894   4.644   5.955   4.062
 1958WAT      O 5895   4.067   5.758   3.698
 1958WAT     H1 5896   4.078   5.848   3.728
 1958WAT     H2 5897   3.976   5.754   3.669
 1959WAT      O 5898   5.032   5.671   3.845
 1959WAT     H1 5899   5.114   5.622   3.849
 1959WAT     H2 5900   5.035   5.730   3.920
 1960WAT      O 5901   3.832   5.951   4.222
 1960WAT     H1 5902   3.900   5.977   4.284
 1960WAT     H2 5903   3.800   5.867   4.255
 1961WAT      O 5904   4.251   6.055   4.131
 1961WAT     H1 5905   4.302   6.105   4.195
 1961WAT     H2 5906   4.304   5.978   4.113
 1962WAT      O 5907   5.461   5.872   4.501
 1962WAT     H1 5908   5.391   5.911   4.449
 1962WAT     H2 5909   5.488   5.942   4.561
 1963WAT      O 5910   4.079   5.519   4.557
 1963WAT     H1 5911   4.080   5.571   4.477
 1963WAT     H2 5912   3.996   5.471   4.555
 1964WAT      O 5913   4.718   6.530   3.707
 1964WAT     H1 5914   4.656   6.577   3.651
 1964WAT     H2 5915   4.769   6.600   3.749
 1965WAT      O 5916   4.204   6.483   4.375
 1965WAT     H1 5917   4.171   6.546   4.439
 1965WAT     H2 5918   4.222   6.536   4.297
 1966WAT      O 5919   5.056   5.865   4.122
 1966WAT     H1 5920   4.985   5.893   4.180
 1966WAT     H2 5921   5.092   5.946   4.086
 1967WAT      O 5922   4.047   5.690   4.358
 1967WAT     H1 5923   4.082   5.775   4.329
 1967WAT     H2 5924   3.954   5.705   4.370
 1968WAT      O 5925   3.655   6.599   3.445
 1968WAT     H1 5926   3.617   6.648   3.372
 1968WAT     H2 5927   3.681   6.666   3.508
 1969WAT      O 5928   5.363   5.809   4.161
 1969WAT     H1 5929   5.268   5.813   4.174
 1969WAT     H2 5930   5.395   5.891   4.200
 1970WAT      O 5931   4.416   5.439   3.991
 1970WAT     H1 5932   4.447   5.384   3.919
 1970WAT     H2 5933   4.323   5.453   3.972
 1971WAT      O 5934   5.100   6.683   3.729
 1971WAT     H1 5935   5.089   6.589   3.741
 1971WAT     H2 5936   5.100   6.719   3.817
 1972WAT      O 5937   4.911   6.501   4.352
 1972WAT     H1 5938   4.952   6.480   4.269
 1972WAT     H2 5939   4.983   6.527   4.410
 1973WAT      O 5940   4.655   6.246   3.664
 1973WAT     H1 5941   4.562   6.239   3.687
 1973WAT     H2 5942   4.670   6.339   3.653
 1974WAT      O 5943   4.653   5.873   3.364
 1974WAT     H1 5944   4.559   5.889   3.372
 1974WAT     H2 5945   4.685   5.945   3.309
 1975WAT      O 5946   5.305   6.341   4.362
 1975WAT     H1 5947   5.223   6.348   4.314
 1975WAT     H2 5948   5.365   6.399   4.315
 1976WAT      O 5949   5.058   6.402   3.715
 1976WAT     H1 5950   4.996   6.368   3.650
 1976WAT     H2 5951   5.056   6.337   3.785
 1977WAT      O 5952   5.002   6.020   4.456
 1977WAT     H1 5953   4.961   6.102   4.482
 1977WAT     H2 5954   4.929   5.961   4.437
 1978WAT      O 5955   4.215   6.298   3.942
 1978WAT     H1 5956   4.175   6.227   3.893
 1978WAT     H2 5957   4.224   6.264   4.031
 1979WAT      O 5958   4.262   6.667   4.159
 1979WAT     H1 5959   4.232   6.606   4.091
 1979WAT     H2 5960   4.357   6.671   4.148
 1980WAT      O 5961   4.086   5.976   4.320
 1980WAT     H1 5962   4.142   5.987   4.243
 1980WAT     H2 5963   4.138   6.013   4.392
 1981WAT      O 5964   4.171   6.641   4.824
 1981WAT     H1 5965   4.081   6.663   4.849
 1981WAT     H2 5966   4.174   6.653   4.729
 1982WAT      O 5967   4.875   6.326   3.415
 1982WAT     H1 5968   4.919   6.242   3.401
 1982WAT     H2 5969   4.946   6.389   3.424
 1983WAT      O 5970   4.054   6.328   4.681
 1983WAT     H1 5971   4.040   6.415   4.718
 1983WAT     H2 5972   3.966   6.294   4.667
 1984WAT      O 5973   5.233   5.451   3.247
 1984WAT     H1 5974   5.202   5.460   3.337
 1984WAT     H2 5975   5.309   5.509   3.242
 1985WAT      O 5976   3.885   6.188   3.692
 1985WAT     H1 5977   3.873   6.260   3.631
 1985WAT     H2 5978   3.854   6.111   3.645
 1986WAT      O 5979   3.649   6.505   4.273
 1986WAT     H1 5980   3.657   6.518   4.179
 1986WAT     H2 5981   3.710   6.434   4.292
 1987WAT      O 5982   3.774   6.675   3.914
 1987WAT     H1 5983   3.733   6.689   3.829
 1987WAT     H2 5984   3.863   6.646   3.894
 1988WAT      O 5985   5.369   6.719   4.748
 1988WAT     H1 5986   5.382   6.696   4.656
 1988WAT     H2 5987   5.373   6.636   4.795
 1989WAT      O 5988   5.354   5.925   4.844
 1989WAT     H1 5989   5.293   5.976   4.792
 1989WAT     H2 5990   5.322   5.835   4.839
 1990WAT      O 5991   3.655   6.609   4.527
 1990WAT     H1 5992   3.671   6.562   4.445
 1990WAT     H2 5993   3.701   6.558   4.594
 1991WAT      O 5994   4.132   5.522   4.031
 1991WAT     H1 5995   4.088   5.600   3.998
 1991WAT     H2 5996   4.188   5.554   4.101
 1992WAT      O 5997   4.561   5.809   4.591
 1992WAT     H1 5998   4.514   5.830   4.672
 1992WAT     H2 5999   4.520   5.727   4.561
 1993WAT      O 6000   5.061   5.931   4.704
 1993WAT     H1 6001   4.976   5.901   4.736
 1993WAT     H2 6002   5.045   5.955   4.613
 1994WAT      O 6003   4.770   6.081   4.914
 1994WAT     H1 6004   4.803   5.997   4.880
 1994WAT     H2 6005   4.849   6.133   4.929
 1995WAT      O 6006   4.443   5.484   3.519
 1995WAT     H1 6007   4.381   5.484   3.591
 1995WAT     H2 6008   4.435   5.397   3.479
 1996WAT      O 6009   4.336   5.577   4.217
 1996WAT     H1 6010   4.365   5.667   4.209
 1996WAT     H2 6011   4.390   5.528   4.155
 1997WAT      O 6012   4.111   6.034   3.804
 1997WAT     H1 6013   4.088   6.013   3.894
 1997WAT     H2 6014   4.033   6.078   3.769
 1998WAT      O 6015   4.834   6.035   3.663
 1998WAT     H1 6016   4.774   6.107   3.645
 1998WAT     H2 6017   4.889   6.029   3.585
 1999WAT      O 6018   4.355   6.124   4.870
 1999WAT     H1 6019   4.345   6.030   4.855
 1999WAT     H2 6020   4.439   6.146   4.831
 2000WAT      O 6021   4.695   5.899   3.866
 2000WAT     H1 6022   4.734   5.930   3.785
 2000WAT     H2 6023   4.731   5.811   3.878
 2001WAT      O 6024   3.868   5.765   4.685
 2001WAT     H1 6025   3.829   5.850   4.706
 2001WAT     H2 6026   3.799   5.702   4.705
 2002WAT      O 6027   4.526   5.774   4.992
 2002WAT     H1 6028   4.457   5.754   5.056
 2002WAT     H2 6029   4.600   5.802   5.046
 2003WAT      O 6030   3.598   5.558   4.089
 2003WAT     H1 6031   3.569   5.615   4.160
 2003WAT     H2 6032   3.673   5.510   4.125
 2004WAT      O 6033   3.617   5.952   3.210
 2004WAT     H1 6034   3.609   6.046   3.224
 2004WAT     H2 6035   3.582   5.938   3.122
 2005WAT      O 6036   4.753   6.158   4.276
 2005WAT     H1 6037   4.680   6.209   4.311
 2005WAT     H2 6038   4.713   6.076   4.246
 2006WAT      O 6039   4.397   5.825   4.116
 2006WAT     H1 6040   4.397   5.781   4.032
 2006WAT     H2 6041   4.486   5.857   4.127
 2007WAT      O 6042   3.982   5.814   4.012
 2007WAT     H1 6043   3.948   5.861   4.088
 2007WAT     H2 6044   3.906   5.768   3.976
 2008WAT      O 6045   4.403   5.925   3.416
 2008WAT     H1 6046   4.415   5.921   3.510
 2008WAT     H2 6047   4.365   6.012   3.400
 2009WAT      O 6048   4.799   5.703   4.217
 2009WAT     H1 6049   4.801   5.748   4.302
 2009WAT     H2 6050   4.775   5.613   4.239
 2010WAT      O 6051   4.304   6.156   3.355
 2010WAT     H1 6052   4.248   6.112   3.293
 2010WAT     H2 6053   4.375   6.192   3.302
 2011WAT      O 6054   5.142   5.444   4.801
 2011WAT     H1 6055   5.175   5.371   4.854
 2011WAT     H2 6056   5.146   5.412   4.711
 2012WAT      O 6057   3.812   6.546   4.743
 2012WAT     H1 6058   3.774   6.482   4.803
 2012WAT     H2 6059   3.843   6.617   4.800
 2013WAT      O 6060   4.427   6.231   4.291
 2013WAT     H1 6061   4.464   6.184   4.366
 2013WAT     H2 6062   4.408   6.319   4.325
 2014WAT      O 6063   3.713   5.706   3.904
 2014WAT     H1 6064   3.685   5.669   3.988
 2014WAT     H2 6065   3.707   5.633   3.843
 2015WAT      O 6066   4.206   6.135   4.523
 2015WAT     H1 6067   4.176   6.223   4.545
 2015WAT     H2 6068   4.301   6.141   4.527
 2016WAT      O 6069   4.059   6.556   3.583
 2016WAT     H1 6070   3.981   6.502   3.567
 2016WAT     H2 6071   4.132   6.504   3.549
 2017WAT      O 6072   5.135   6.456   4.162
 2017WAT     H1 6073   5.207   6.505   4.123
 2017WAT     H2 6074   5.115   6.388   4.097
 2018WAT      O 6075   4.681   5.595   3.576
 2018WAT     H1 6076   4.599   5.545   3.569
 2018WAT     H2 6077   4.661   5.679   3.535
 2019WAT      O 6078   4.673   6.463   4.751
 2019WAT     H1 6079   4.666   6.371   4.725
 2019WAT     H2 6080   4.610   6.472   4.822
 2020WAT      O 6081   4.952   6.032   3.406
 2020WAT     H1 6082   5.041   6.063   3.388
 2020WAT     H2 6083   4.949   5.945   3.367
 2021WAT      O 6084   4.063   6.523   3.946
 2021WAT     H1 6085   4.115   6.442   3.941
 2021WAT     H2 6086   4.018   6.517   4.031
 2022WAT      O 6087   4.552   6.649   3.474
 2022WAT     H1 6088   4.586   6.724   3.424
 2022WAT     H2 6089   4.469   6.681   3.510
 2023WAT      O 6090   3.812   6.219   4.638
 2023WAT     H1 6091   3.776   6.286   4.696
 2023WAT     H2 6092   3.782   6.136   4.675
 2024WAT      O 6093   4.132   6.265   4.926
 2024WAT     H1 6094   4.102   6.280   4.836
 2024WAT     H2 6095   4.209   6.209   4.917
 2025WAT      O 6096   5.179   6.163   3.353
 2025WAT     H1 6097   5.171   6.206   3.268
 2025WAT     H2 6098   5.251   6.209   3.396
 2026WAT      O 6099   5.287   6.409   4.660
 2026WAT     H1 6100   5.215   6.468   4.641
 2026WAT     H2 6101   5.340   6.408   4.580
 2027WAT      O 6102   4.840   6.582   4.010
 2027WAT     H1 6103   4.875   6.522   3.944
 2027WAT     H2 6104   4.752   6.549   4.027
 2028WAT      O 6105   4.449   6.658   3.751
 2028WAT     H1 6106   4.518   6.712   3.789
 2028WAT     H2 6107   4.370   6.712   3.754
 2029WAT      O 6108   3.663   6.219   3.300
 2029WAT     H1 6109   3.750   6.248   3.328
 2029WAT     H2 6110   3.614   6.301   3.289
 2030WAT      O 6111   4.379   6.358   3.712
 2030WAT     H1 6112   4.425   6.439   3.735
 2030WAT     H2 6113   4.344   6.326   3.795
 2031WAT      O 6114   3.969   5.392   3.759
 2031WAT     H1 6115   3.956   5.392   3.854
 2031WAT     H2 6116   3.887   5.426   3.724
 2032WAT      O 6117   5.121   6.738   3.279
 2032WAT     H1 6118   5.099   6.666   3.338
 2032WAT     H2 6119   5.082   6.713   3.195
 2033WAT      O 6120   3.669   5.568   4.705
 2033WAT     H1 6121   3.598   5.588   4.766
 2033WAT     H2 6122   3.711   5.491   4.743
 2034WAT      O 6123   5.079   6.530   3.445
 2034WAT     H1 6124   5.051   6.576   3.524
 2034WAT     H2 6125   5.159   6.484   3.472
 2035WAT      O 6126   3.861   6.401   3.513
 2035WAT     H1 6127   3.800   6.475   3.514
 2035WAT     H2 6128   3.909   6.410   3.430
 2036WAT      O 6129   4.819   5.818   4.480
 2036WAT     H1 6130   4.855   5.735   4.513
 2036WAT     H2 6131   4.732   5.824   4.522
 2037WAT      O 6132   5.155   5.713   3.561
 2037WAT     H1 6133   5.092   5.724   3.490
 2037WAT     H2 6134   5.106   5.735   3.640
 2038WAT      O 6135   4.352   5.941   3.703
 2038WAT     H1 6136   4.281   5.988   3.747
 2038WAT     H2 6137   4.380   5.875   3.766
 2039WAT      O 6138   4.515   6.083   4.503
 2039WAT     H1 6139   4.564   6.130   4.569
 2039WAT     H2 6140   4.529   5.991   4.524
 2040WAT      O 6141   4.755   5.613   3.847
 2040WAT     H1 6142   4.743   5.615   3.752
 2040WAT     H2 6143   4.850   5.618   3.859
 2041WAT      O 6144   4.172   5.772   3.440
 2041WAT     H1 6145   4.257   5.816   3.434
 2041WAT     H2 6146   4.136   5.803   3.523
 2042WAT      O 6147   5.235   5.705   4.587
 2042WAT     H1 6148   5.185   5.779   4.621
 2042WAT     H2 6149   5.317   5.743   4.555
 2043WAT      O 6150   5.064   6.229   3.932
 2043WAT     H1 6151   4.970   6.230   3.949
 2043WAT     H2 6152   5.096   6.150   3.976
 2044WAT      O 6153   4.062   6.397   3.288
 2044WAT     H1 6154   4.139   6.386   3.344
 2044WAT     H2 6155   4.070   6.328   3.223
 2045WAT      O 6156   3.932   6.140   3.356
 2045WAT     H1 6157   3.940   6.046   3.367
 2045WAT     H2 6158   4.021   6.173   3.367
 2046WAT      O 6159   4.796   6.685   4.980
 2046WAT     H1 6160   4.735   6.687   4.906
 2046WAT     H2 6161   4.766   6.611   5.034
 2047WAT      O 6162   3.684   6.323   4.880
 2047WAT     H1 6163   3.735   6.265   4.937
 2047WAT     H2 6164   3.610   6.351   4.933
 2048WAT      O 6165   4.375   6.595   3.235
 2048WAT     H1 6166   4.364   6.533   3.308
 2048WAT     H2 6167   4.358   6.542   3.157
 2049WAT      O 6168   4.390   6.463   4.833
 2049WAT     H1 6169   4.313   6.520   4.825
 2049WAT     H2 6170   4.408   6.434   4.744
 2050WAT      O 6171   4.699   6.501   3.296
 2050WAT     H1 6172   4.644   6.546   3.360
 2050WAT     H2 6173   4.761   6.450   3.348
 2051WAT      O 6174   5.104   6.636   4.889
 2051WAT     H1 6175   5.178   6.670   4.838
 2051WAT     H2 6176   5.028   6.653   4.833
 2052WAT      O 6177   3.888   6.137   4.969
 2052WAT     H1 6178   3.892   6.107   5.060
 2052WAT     H2 6179   3.973   6.177   4.953
 2053WAT      O 6180   4.265   6.397   3.485
 2053WAT     H1 6181   4.308   6.380   3.569
 2053WAT     H2 6182   4.278   6.316   3.436
 2054WAT      O 6183   4.082   5.995   4.766
 2054WAT     H1 6184   4.029   5.946   4.703
 2054WAT     H2 6185   4.149   6.038   4.712
 2055WAT      O 6186   4.517   6.299   3.210
 2055WAT     H1 6187   4.569   6.228   3.173
 2055WAT     H2 6188   4.581   6.363   3.240
 2056WAT      O 6189   4.971   6.441   4.742
 2056WAT     H1 6190   5.013   6.457   4.827
 2056WAT     H2 6191   4.878   6.454   4.759
 2057WAT      O 6192   5.019   6.175   4.943
 2057WAT     H1 6193   5.077   6.100   4.934
 2057WAT     H2 6194   5.036   6.228   4.865
 2058WAT      O 6195   4.130   5.691   4.774
 2058WAT     H1 6196   4.121   5.630   4.701
 2058WAT     H2 6197   4.072   5.764   4.751
 2059WAT      O 6198   4.407   5.547   4.477
 2059WAT     H1 6199   4.362   5.549   4.393
 2059WAT     H2 6200   4.344   5.507   4.537
 2060WAT      O 6201   4.448   6.437   4.539
 2060WAT     H1 6202   4.490   6.521   4.522
 2060WAT     H2 6203   4.356   6.450   4.516
 2061WAT      O 6204   4.681   6.210   4.678
 2061WAT     H1 6205   4.693   6.150   4.752
 2061WAT     H2 6206   4.767   6.214   4.636
 2062WAT      O 6207   4.915   6.265   4.535
 2062WAT     H1 6208   4.862   6.318   4.475
 2062WAT     H2 6209   4.949   6.328   4.598
 2063WAT      O 6210   4.155   6.004   3.180
 2063WAT     H1 6211   4.135   5.918   3.216
 2063WAT     H2 6212   4.138   5.995   3.086
 2064WAT      O 6213   4.358   5.864   4.803
 2064WAT     H1 6214   4.417   5.833   4.872
 2064WAT     H2 6215   4.276   5.817   4.819
 2065WAT      O 6216   4.840   5.826   4.827
 2065WAT     H1 6217   4.771   5.760   4.820
 2065WAT     H2 6218   4.912   5.781   4.871
 2066WAT      O 6219   4.903   5.485   3.433
 2066WAT     H1 6220   4.931   5.401   3.468
 2066WAT     H2 6221   4.826   5.508   3.484
 2067WAT      O 6222   4.035   5.714   3.179
 2067WAT     H1 6223   4.065   5.715   3.088
 2067WAT     H2 6224   4.109   5.679   3.228
 2068WAT      O 6225   4.357   5.608   3.277
 2068WAT     H1 6226   4.322   5.541   3.219
 2068WAT     H2 6227   4.377   5.562   3.359
 2069WAT      O 6228   3.937   6.645   3.262
 2069WAT     H1 6229   3.981   6.699   3.327
 2069WAT     H2 6230   3.986   6.562   3.263
 2070WAT      O 6231   5.341   6.409   3.494
 2070WAT     H1 6232   5.417   6.466   3.504
 2070WAT     H2 6233   5.342   6.352   3.571
 2071WAT      O 6234   3.691   6.261   3.917
 2071WAT     H1 6235   3.625   6.234   3.852
 2071WAT     H2 6236   3.775   6.250   3.872
 2072WAT      O 6237   5.441   6.494   3.978
 2072WAT     H1 6238   5.478   6.416   3.937
 2072WAT     H2 6239   5.505   6.563   3.960
 2073WAT      O 6240   5.140   6.633   4.519
 2073WAT     H1 6241   5.058   6.676   4.546
 2073WAT     H2 6242   5.180   6.694   4.458
 2074WAT      O 6243   5.346   6.438   3.209
 2074WAT     H1 6244   5.373   6.529   3.197
 2074WAT     H2 6245   5.327   6.432   3.303
 2075WAT      O 6246   4.986   5.741   3.339
 2075WAT     H1 6247   5.027   5.722   3.255
 2075WAT     H2 6248   4.955   5.656   3.370
 2076WAT      O 6249   5.336   6.232   3.709
 2076WAT     H1 6250   5.298   6.155   3.665
 2076WAT     H2 6251   5.263   6.270   3.757
 2077WAT      O 6252   3.795   6.300   4.371
 2077WAT     H1 6253   3.831   6.291   4.459
 2077WAT     H2 6254   3.738   6.224   4.361
 2078WAT      O 6255   5.275   6.147   4.672
 2078WAT     H1 6256   5.251   6.124   4.582
 2078WAT     H2 6257   5.301   6.239   4.668
 2079WAT      O 6258   3.750   5.991   4.761
 2079WAT     H1 6259   3.660   5.988   4.795
 2079WAT     H2 6260   3.804   6.011   4.838
 2080WAT      O 6261   5.118   5.669   4.950
 2080WAT     H1 6262   5.206   5.670   4.988
 2080WAT     H2 6263   5.120   5.596   4.889
 2081WAT      O 6264   3.612   5.982   3.511
 2081WAT     H1 6265   3.522   6.009   3.494
 2081WAT     H2 6266   3.661   6.009   3.433
 2082WAT      O 6267   5.263   6.055   4.039
 2082WAT     H1 6268   5.315   6.005   3.976
 2082WAT     H2 6269   5.322   6.068   4.113
 2083WAT      O 6270   5.281   6.063   4.391
 2083WAT     H1 6271   5.186   6.060   4.402
 2083WAT     H2 6272   5.299   6.154   4.367
 2084WAT      O 6273   3.866   5.888   3.302
 2084WAT     H1 6274   3.937   5.846   3.253
 2084WAT     H2 6275   3.795   5.895   3.239
 2085WAT      O 6276   3.831   5.493   3.206
 2085WAT     H1 6277   3.903   5.547   3.238
 2085WAT     H2 6278   3.858   5.466   3.118
 2086WAT      O 6279   5.212   5.980   3.633
 2086WAT     H1 6280   5.262   5.957   3.711
 2086WAT     H2 6281   5.192   5.896   3.591
 2087WAT      O 6282   3.800   5.418   4.196
 2087WAT     H1 6283   3.865   5.363   4.152
 2087WAT     H2 6284   3.842   5.444   4.278
 2088WAT      O 6285   5.355   5.844   3.886
 2088WAT     H1 6286   5.344   5.828   3.980
 2088WAT     H2 6287   5.431   5.791   3.862
 2089WAT      O 6288   5.190   5.438   4.532
 2089WAT     H1 6289   5.253   5.499   4.568
 2089WAT     H2 6290   5.204   5.441   4.437
 2090WAT      O 6291   5.444   5.627   3.210
 2090WAT     H1 6292   5.536   5.614   3.189
 2090WAT     H2 6293   5.442   5.635   3.305
 2091WAT      O 6294   5.451   5.704   3.473
 2091WAT     H1 6295   5.372   5.698   3.526
 2091WAT     H2 6296   5.472   5.798   3.472
 2092WAT      O 6297   3.775   5.434   4.470
 2092WAT     H1 6298   3.741   5.480   4.547
 2092WAT     H2 6299   3.742   5.345   4.479
 2093WAT      O 6300   4.527   5.553   4.823
 2093WAT     H1 6301   4.521   5.612   4.898
 2093WAT     H2 6302   4.621   5.542   4.808
 2094WAT      O 6303   4.790   5.519   4.787
 2094WAT     H1 6304   4.852   5.551   4.720
 2094WAT     H2 6305   4.845   5.470   4.849
 2095WAT      O 6306   3.843   5.387   4.798
 2095WAT     H1 6307   3.897   5.369   4.722
 2095WAT     H2 6308   3.849   5.308   4.852
 2096WAT      O 6309   4.864   5.375   4.419
 2096WAT     H1 6310   4.777   5.408   4.399
 2096WAT     H2 6311   4.854   5.328   4.502
 2097WAT      O 6312   4.955   5.596   4.558
 2097WAT     H1 6313   4.922   5.514   4.520
 2097WAT     H2 6314   5.050   5.592   4.545
 2098WAT      O 6315   4.639   5.467   4.313
 2098WAT     H1 6316   4.561   5.514   4.341
 2098WAT     H2 6317   4.610   5.376   4.302
 2099WAT      O 6318   5.094   5.537   4.118
 2099WAT     H1 6319   5.138   5.532   4.033
 2099WAT     H2 6320   5.067   5.629   4.125
 2100WAT      O 6321   5.281   5.500   3.919
 2100WAT     H1 6322   5.275   5.406   3.904
 2100WAT     H2 6323   5.359   5.511   3.973
 2101WAT      O 6324   3.774   5.497   3.565
 2101WAT     H1 6325   3.849   5.509   3.508
 2101WAT     H2 6326   3.727   5.581   3.561
 2102WAT      O 6327   4.428   5.709   3.864
 2102WAT     H1 6328   4.346   5.671   3.830
 2102WAT     H2 6329   4.478   5.633   3.895
 2103WAT      O 6330   4.878   5.375   3.988
 2103WAT     H1 6331   4.938   5.432   4.036
 2103WAT     H2 6332   4.804   5.432   3.966
 2104WAT      O 6333   5.192   5.415   3.516
 2104WAT     H1 6334   5.212   5.505   3.542
 2104WAT     H2 6335   5.114   5.392   3.565
 2105WAT      O 6336   4.011   5.550   3.419
 2105WAT     H1 6337   4.064   5.471   3.406
 2105WAT     H2 6338   4.074   5.618   3.443
 2106WAT      O 6339   4.230   5.524   3.725
 2106WAT     H1 6340   4.167   5.454   3.741
 2106WAT     H2 6341   4.176   5.600   3.703
 2107WAT      O 6342   4.243   5.452   4.968
 2107WAT     H1 6343   4.215   5.502   4.892
 2107WAT     H2 6344   4.281   5.372   4.932
 2108WAT      O 6345   4.903   5.393   5.026
 2108WAT     H1 6346   4.892   5.425   5.116
 2108WAT     H2 6347   4.985   5.433   4.996
 2109WAT      O 6348   4.794   6.195   2.062
 2109WAT     H1 6349   4.785   6.104   2.035
 2109WAT     H2 6350   4.752   6.245   1.992
 2110WAT      O 6351   4.607   6.373   2.251
 2110WAT     H1 6352   4.529   6.325   2.280
 2110WAT     H2 6353   4.672   6.305   2.233
 2111WAT      O 6354   4.008   6.404   2.338
 2111WAT     H1 6355   3.925   6.378   2.378
 2111WAT     H2 6356   4.069   6.411   2.412
 2112WAT      O 6357   3.849   5.900   1.717
 2112WAT     H1 6358   3.760   5.934   1.707
 2112WAT     H2 6359   3.878   5.880   1.628
 2113WAT      O 6360   3.646   6.160   2.305
 2113WAT     H1 6361   3.703   6.083   2.305
 2113WAT     H2 6362   3.646   6.190   2.214
 2114WAT      O 6363   4.551   6.640   2.251
 2114WAT     H1 6364   4.544   6.546   2.235
 2114WAT     H2 6365   4.627   6.649   2.308
 2115WAT      O 6366   3.770   5.701   2.484
 2115WAT     H1 6367   3.752   5.611   2.512
 2115WAT     H2 6368   3.730   5.756   2.551
 2116WAT      O 6369   4.654   5.921   2.274
 2116WAT     H1 6370   4.691   5.834   2.263
 2116WAT     H2 6371   4.644   5.955   2.185
 2117WAT      O 6372   4.067   5.758   1.820
 2117WAT     H1 6373   4.078   5.848   1.851
 2117WAT     H2 6374   3.976   5.754   1.791
 2118WAT      O 6375   5.032   5.671   1.967
 2118WAT     H1 6376   5.114   5.622   1.971
 2118WAT     H2 6377   5.035   5.730   2.043
 2119WAT      O 6378   3.832   5.951   2.345
 2119WAT     H1 6379   3.900   5.977   2.407
 2119WAT     H2 6380   3.800   5.867   2.378
 2120WAT      O 6381   4.251   6.055   2.253
 2120WAT     H1 6382   4.302   6.105   2.317
 2120WAT     H2 6383   4.304   5.978   2.236
 2121WAT      O 6384   5.461   5.872   2.624
 2121WAT     H1 6385   5.391   5.911   2.572
 2121WAT     H2 6386   5.488   5.942   2.684
 2122WAT      O 6387   4.079   5.519   2.680
 2122WAT     H1 6388   4.080   5.571   2.599
 2122WAT     H2 6389   3.996   5.471   2.678
 2123WAT      O 6390   4.718   6.530   1.830
 2123WAT     H1 6391   4.656   6.577   1.774
 2123WAT     H2 6392   4.769   6.600   1.872
 2124WAT      O 6393   4.204   6.483   2.498
 2124WAT     H1 6394   4.171   6.546   2.562
 2124WAT     H2 6395   4.222   6.536   2.420
 2125WAT      O 6396   5.056   5.865   2.245
 2125WAT     H1 6397   4.985   5.893   2.303
 2125WAT     H2 6398   5.092   5.946   2.208
 2126WAT      O 6399   4.047   5.690   2.481
 2126WAT     H1 6400   4.082   5.775   2.451
 2126WAT     H2 6401   3.954   5.705   2.492
 2127WAT      O 6402   3.655   6.599   1.567
 2127WAT     H1 6403   3.617   6.648   1.494
 2127WAT     H2 6404   3.681   6.666   1.630
 2128WAT      O 6405   5.363   5.809   2.284
 2128WAT     H1 6406   5.268   5.813   2.297
 2128WAT     H2 6407   5.395   5.891   2.322
 2129WAT      O 6408   4.416   5.439   2.113
 2129WAT     H1 6409   4.447   5.384   2.042
 2129WAT     H2 6410   4.323   5.453   2.095
 2130WAT      O 6411   5.100   6.683   1.851
 2130WAT     H1 6412   5.089   6.589   1.864
 2130WAT     H2 6413   5.100   6.719   1.940
 2131WAT      O 6414   4.911   6.501   2.475
 2131WAT     H1 6415   4.952   6.480   2.392
 2131WAT     H2 6416   4.983   6.527   2.532
 2132WAT      O 6417   4.655   6.246   1.787
 2132WAT     H1 6418   4.562   6.239   1.810
 2132WAT     H2 6419   4.670   6.339   1.775
 2133WAT      O 6420   4.653   5.873   1.486
 2133WAT     H1 6421   4.559   5.889   1.495
 2133WAT     H2 6422   4.685   5.945   1.432
 2134WAT      O 6423   5.305   6.341   2.484
 2134WAT     H1 6424   5.223   6.348   2.437
 2134WAT     H2 6425   5.365   6.399   2.437
 2135WAT      O 6426   5.058   6.402   1.837
 2135WAT     H1 6427   4.996   6.368   1.772
 2135WAT     H2 6428   5.056   6.337   1.908
 2136WAT      O 6429   5.002   6.020   2.579
 2136WAT     H1 6430   4.961   6.102   2.604
 2136WAT     H2 6431   4.929   5.961   2.560
 2137WAT      O 6432   4.215   6.298   2.065
 2137WAT     H1 6433   4.175   6.227   2.015
 2137WAT     H2 6434   4.224   6.264   2.154
 2138WAT      O 6435   4.262   6.667   2.281
 2138WAT     H1 6436   4.232   6.606   2.213
 2138WAT     H2 6437   4.357   6.671   2.270
 2139WAT      O 6438   4.086   5.976   2.443
 2139WAT     H1 6439   4.142   5.987   2.365
 2139WAT     H2 6440   4.138   6.013   2.514
 2140WAT      O 6441   4.171   6.641   2.946
 2140WAT     H1 6442   4.081   6.663   2.971
 2140WAT     H2 6443   4.174   6.653   2.852
 2141WAT      O 6444   4.875   6.326   1.538
 2141WAT     H1 6445   4.919   6.242   1.523
 2141WAT     H2 6446   4.946   6.389   1.546
 2142WAT      O 6447   4.054   6.328   2.804
 2142WAT     H1 6448   4.040   6.415   2.841
 2142WAT     H2 6449   3.966   6.294   2.789
 2143WAT      O 6450   5.233   5.451   1.369
 2143WAT     H1 6451   5.202   5.460   1.459
 2143WAT     H2 6452   5.309   5.509   1.364
 2144WAT      O 6453   3.885   6.188   1.815
 2144WAT     H1 6454   3.873   6.260   1.754
 2144WAT     H2 6455   3.854   6.111   1.767
 2145WAT      O 6456   3.649   6.505   2.396
 2145WAT     H1 6457   3.657   6.518   2.301
 2145WAT     H2 6458   3.710   6.434   2.415
 2146WAT      O 6459   3.774   6.675   2.037
 2146WAT     H1 6460   3.733   6.689   1.951
 2146WAT     H2 6461   3.863   6.646   2.016
 2147WAT      O 6462   5.369   6.719   2.870
 2147WAT     H1 6463   5.382   6.696   2.779
 2147WAT     H2 6464   5.373   6.636   2.918
 2148WAT      O 6465   5.354   5.925   2.967
 2148WAT     H1 6466   5.293   5.976   2.914
 2148WAT     H2 6467   5.322   5.835   2.961
 2149WAT      O 6468   3.655   6.609   2.650
 2149WAT     H1 6469   3.671   6.562   2.568
 2149WAT     H2 6470   3.701   6.558   2.716
 2150WAT      O 6471   4.132   5.522   2.153
 2150WAT     H1 6472   4.088   5.600   2.120
 2150WAT     H2 6473   4.188   5.554   2.224
 2151WAT      O 6474   4.561   5.809   2.714
 2151WAT     H1 6475   4.514   5.830   2.795
 2151WAT     H2 6476   4.520   5.727   2.683
 2152WAT      O 6477   5.061   5.931   2.827
 2152WAT     H1 6478   4.976   5.901   2.859
 2152WAT     H2 6479   5.045   5.955   2.735
 2153WAT      O 6480   4.770   6.081   3.037
 2153WAT     H1 6481   4.803   5.997   3.003
 2153WAT     H2 6482   4.849   6.133   3.051
 2154WAT      O 6483   4.443   5.484   1.641
 2154WAT     H1 6484   4.381   5.484   1.714
 2154WAT     H2 6485   4.435   5.397   1.602
 2155WAT      O 6486   4.336   5.577   2.339
 2155WAT     H1 6487   4.365   5.667   2.331
 2155WAT     H2 6488   4.390   5.528   2.278
 2156WAT      O 6489   4.111   6.034   1.926
 2156WAT     H1 6490   4.088   6.013   2.017
 2156WAT     H2 6491   4.033   6.078   1.892
 2157WAT      O 6492   4.834   6.035   1.786
 2157WAT     H1 6493   4.774   6.107   1.768
 2157WAT     H2 6494   4.889   6.029   1.708
 2158WAT      O 6495   4.355   6.124   2.993
 2158WAT     H1 6496   4.345   6.030   2.978
 2158WAT     H2 6497   4.439   6.146   2.953
 2159WAT      O 6498   4.695   5.899   1.989
 2159WAT     H1 6499   4.734   5.930   1.908
 2159WAT     H2 6500   4.731   5.811   2.000
 2160WAT      O 6501   3.868   5.765   2.808
 2160WAT     H1 6502   3.829   5.850   2.829
 2160WAT     H2 6503   3.799   5.702   2.827
 2161WAT      O 6504   4.526   5.774   3.115
 2161WAT     H1 6505   4.457   5.754   3.178
 2161WAT     H2 6506   4.600   5.802   3.168
 2162WAT      O 6507   3.598   5.558   2.211
 2162WAT     H1 6508   3.569   5.615   2.283
 2162WAT     H2 6509   3.673   5.510   2.248
 2163WAT      O 6510   3.617   5.952   1.332
 2163WAT     H1 6511   3.609   6.046   1.346
 2163WAT     H2 6512   3.582   5.938   1.244
 2164WAT      O 6513   4.753   6.158   2.399
 2164WAT     H1 6514   4.680   6.209   2.433
 2164WAT     H2 6515   4.713   6.076   2.368
 2165WAT      O 6516   4.397   5.825   2.239
 2165WAT     H1 6517   4.397   5.781   2.154
 2165WAT     H2 6518   4.486   5.857   2.250
 2166WAT      O 6519   3.982   5.814   2.135
 2166WAT     H1 6520   3.948   5.861   2.211
 2166WAT     H2 6521   3.906   5.768   2.099
 2167WAT      O 6522   4.403   5.925   1.538
 2167WAT     H1 6523   4.415   5.921   1.633
 2167WAT     H2 6524   4.365   6.012   1.523
 2168WAT      O 6525   4.799   5.703   2.340
 2168WAT     H1 6526   4.801   5.748   2.424
 2168WAT     H2 6527   4.775   5.613   2.361
 2169WAT      O 6528   4.304   6.156   1.478
 2169WAT     H1 6529   4.248   6.112   1.415
 2169WAT     H2 6530   4.375   6.192   1.425
 2170WAT      O 6531   5.142   5.444   2.924
 2170WAT     H1 6532   5.175   5.371   2.976
 2170WAT     H2 6533   5.146   5.412   2.833
 2171WAT      O 6534   3.812   6.546   2.866
 2171WAT     H1 6535   3.774   6.482   2.925
 2171WAT     H2 6536   3.843   6.617   2.923
 2172WAT      O 6537   4.427   6.231   2.414
 2172WAT     H1 6538   4.464   6.184   2.488
 2172WAT     H2 6539   4.408   6.319   2.448
 2173WAT      O 6540   3.713   5.706   2.027
 2173WAT     H1 6541   3.685   5.669   2.110
 2173WAT     H2 6542   3.707   5.633   1.965
 2174WAT      O 6543   4.206   6.135   2.646
 2174WAT     H1 6544   4.176   6.223   2.668
 2174WAT     H2 6545   4.301   6.141   2.649
 2175WAT      O 6546   4.059   6.556   1.705
 2175WAT     H1 6547   3.981   6.502   1.689
 2175WAT     H2 6548   4.132   6.504   1.671
 2176WAT      O 6549   5.135   6.456   2.284
 2176WAT     H1 6550   5.207   6.505   2.245
 2176WAT     H2 6551   5.115   6.388   2.220
 2177WAT      O 6552   4.681   5.595   1.699
 2177WAT     H1 6553   4.599   5.545   1.691
 2177WAT     H2 6554   4.661   5.679   1.657
 2178WAT      O 6555   4.673   6.463   2.873
 2178WAT     H1 6556   4.666   6.371   2.848
 2178WAT     H2 6557   4.610   6.472   2.945
 2179WAT      O 6558   4.952   6.032   1.528
 2179WAT     H1 6559   5.041   6.063   1.511
 2179WAT     H2 6560   4.949   5.945   1.489
 2180WAT      O 6561   4.063   6.523   2.069
 2180WAT     H1 6562   4.115   6.442   2.064
 2180WAT     H2 6563   4.018   6.517   2.153
 2181WAT      O 6564   4.552   6.649   1.596
 2181WAT     H1 6565   4.586   6.724   1.547
 2181WAT     H2 6566   4.469   6.681   1.633
 2182WAT      O 6567   3.812   6.219   2.760
 2182WAT     H1 6568   3.776   6.286   2.819
 2182WAT     H2 6569   3.782   6.136   2.797
 2183WAT      O 6570   4.132   6.265   3.049
 2183WAT     H1 6571   4.102   6.280   2.959
 2183WAT     H2 6572   4.209   6.209   3.039
 2184WAT      O 6573   5.179   6.163   1.475
 2184WAT     H1 6574   5.171   6.206   1.390
 2184WAT     H2 6575   5.251   6.209   1.518
 2185WAT      O 6576   5.287   6.409   2.783
 2185WAT     H1 6577   5.215   6.468   2.763
 2185WAT     H2 6578   5.340   6.408   2.703
 2186WAT      O 6579   4.840   6.582   2.133
 2186WAT     H1 6580   4.875   6.522   2.067
 2186WAT     H2 6581   4.752   6.549   2.150
 2187WAT      O 6582   4.449   6.658   1.873
 2187WAT     H1 6583   4.518   6.712   1.912
 2187WAT     H2 6584   4.370   6.712   1.877
 2188WAT      O 6585   3.663   6.219   1.423
 2188WAT     H1 6586   3.750   6.248   1.451
 2188WAT     H2 6587   3.614   6.301   1.411
 2189WAT      O 6588   4.379   6.358   1.835
 2189WAT     H1 6589   4.425   6.439   1.857
 2189WAT     H2 6590   4.344   6.326   1.918
 2190WAT      O 6591   3.969   5.392   1.882
 2190WAT     H1 6592   3.956   5.392   1.977
 2190WAT     H2 6593   3.887   5.426   1.847
 2191WAT      O 6594   5.121   6.738   1.402
 2191WAT     H1 6595   5.099   6.666   1.461
 2191WAT     H2 6596   5.082   6.713   1.318
 2192WAT      O 6597   3.669   5.568   2.828
 2192WAT     H1 6598   3.598   5.588   2.888
 2192WAT     H2 6599   3.711   5.491   2.865
 2193WAT      O 6600   5.079   6.530   1.568
 2193WAT     H1 6601   5.051   6.576   1.647
 2193WAT     H2 6602   5.159   6.484   1.595
 2194WAT      O 6603   3.861   6.401   1.635
 2194WAT     H1 6604   3.800   6.475   1.636
 2194WAT     H2 6605   3.909   6.410   1.553
 2195WAT      O 6606   4.819   5.818   2.603
 2195WAT     H1 6607   4.855   5.735   2.636
 2195WAT     H2 6608   4.732   5.824   2.645
 2196WAT      O 6609   5.155   5.713   1.684
 2196WAT     H1 6610   5.092   5.724   1.612
 2196WAT     H2 6611   5.106   5.735   1.763
 2197WAT      O 6612   4.352   5.941   1.825
 2197WAT     H1 6613   4.281   5.988   1.870
 2197WAT     H2 6614   4.380   5.875   1.889
 2198WAT      O 6615   4.515   6.083   2.625
 2198WAT     H1 6616   4.564   6.130   2.692
 2198WAT     H2 6617   4.529   5.991   2.646
 2199WAT      O 6618   4.755   5.613   1.969
 2199WAT     H1 6619   4.743   5.615   1.874
 2199WAT     H2 6620   4.850   5.618   1.981
 2200WAT      O 6621   4.172   5.772   1.563
 2200WAT     H1 6622   4.257   5.816   1.556
 2200WAT     H2 6623   4.136   5.803   1.646
 2201WAT      O 6624   5.235   5.705   2.710
 2201WAT     H1 6625   5.185   5.779   2.744
 2201WAT     H2 6626   5.317   5.743   2.678
 2202WAT      O 6627   5.064   6.229   2.054
 2202WAT     H1 6628   4.970   6.230   2.072
 2202WAT     H2 6629   5.096   6.150   2.099
 2203WAT      O 6630   4.062   6.397   1.410
 2203WAT     H1 6631   4.139   6.386   1.467
 2203WAT     H2 6632   4.070   6.328   1.345
 2204WAT      O 6633   3.932   6.140   1.479
 2204WAT     H1 6634   3.940   6.046   1.490
 2204WAT     H2 6635   4.021   6.173   1.489
 2205WAT      O 6636   4.796   6.685   3.103
 2205WAT     H1 6637   4.735   6.687   3.029
 2205WAT     H2 6638   4.766   6.611   3.156
 2206WAT      O 6639   3.684   6.323   3.002
 2206WAT     H1 6640   3.735   6.265   3.059
 2206WAT     H2 6641   3.610   6.351   3.056
 2207WAT      O 6642   4.375   6.595   1.358
 2207WAT     H1 6643   4.364   6.533   1.430
 2207WAT     H2 6644   4.358   6.542   1.279
 2208WAT      O 6645   4.390   6.463   2.956
 2208WAT     H1 6646   4.313   6.520   2.947
 2208WAT     H2 6647   4.408   6.434   2.866
 2209WAT      O 6648   4.699   6.501   1.418
 2209WAT     H1 6649   4.644   6.546   1.483
 2209WAT     H2 6650   4.761   6.450   1.470
 2210WAT      O 6651   5.104   6.636   3.011
 2210WAT     H1 6652   5.178   6.670   2.961
 2210WAT     H2 6653   5.028   6.653   2.956
 2211WAT      O 6654   3.888   6.137   3.092
 2211WAT     H1 6655   3.892   6.107   3.183
 2211WAT     H2 6656   3.973   6.177   3.076
 2212WAT      O 6657   4.265   6.397   1.608
 2212WAT     H1 6658   4.308   6.380   1.692
 2212WAT     H2 6659   4.278   6.316   1.558
 2213WAT      O 6660   4.082   5.995   2.888
 2213WAT     H1 6661   4.029   5.946   2.826
 2213WAT     H2 6662   4.149   6.038   2.835
 2214WAT      O 6663   4.517   6.299   1.333
 2214WAT     H1 6664   4.569   6.228   1.296
 2214WAT     H2 6665   4.581   6.363   1.363
 2215WAT      O 6666   4.971   6.441   2.865
 2215WAT     H1 6667   5.013   6.457   2.950
 2215WAT     H2 6668   4.878   6.454   2.881
 2216WAT      O 6669   5.019   6.175   3.065
 2216WAT     H1 6670   5.077   6.100   3.056
 2216WAT     H2 6671   5.036   6.228   2.988
 2217WAT      O 6672   4.130   5.691   2.896
 2217WAT     H1 6673   4.121   5.630   2.824
 2217WAT     H2 6674   4.072   5.764   2.874
 2218WAT      O 6675   4.407   5.547   2.600
 2218WAT     H1 6676   4.362   5.549   2.515
 2218WAT     H2 6677   4.344   5.507   2.659
 2219WAT      O 6678   4.448   6.437   2.662
 2219WAT     H1 6679   4.490   6.521   2.645
 2219WAT     H2 6680   4.356   6.450   2.639
 2220WAT      O 6681   4.681   6.210   2.800
 2220WAT     H1 6682   4.693   6.150   2.874
 2220WAT     H2 6683   4.767   6.214   2.758
 2221WAT      O 6684   4.915   6.265   2.658
 2221WAT     H1 6685   4.862   6.318   2.597
 2221WAT     H2 6686   4.949   6.328   2.721
 2222WAT      O 6687   4.155   6.004   1.302
 2222WAT     H1 6688   4.135   5.918   1.338
 2222WAT     H2 6689   4.138   5.995   1.209
 2223WAT      O 6690   4.358   5.864   2.926
 2223WAT     H1 6691   4.417   5.833   2.995
 2223WAT     H2 6692   4.276   5.817   2.942
 2224WAT      O 6693   4.840   5.826   2.949
 2224WAT     H1 6694   4.771   5.760   2.943
 2224WAT     H2 6695   4.912   5.781   2.994
 2225WAT      O 6696   4.903   5.485   1.555
 2225WAT     H1 6697   4.931   5.401   1.591
 2225WAT     H2 6698   4.826   5.508   1.607
 2226WAT      O 6699   4.035   5.714   1.301
 2226WAT     H1 6700   4.065   5.715   1.210
 2226WAT     H2 6701   4.109   5.679   1.351
 2227WAT      O 6702   4.357   5.608   1.400
 2227WAT     H1 6703   4.322   5.541   1.342
 2227WAT     H2 6704   4.377   5.562   1.481
 2228WAT      O 6705   3.937   6.645   1.384
 2228WAT     H1 6706   3.981   6.699   1.450
 2228WAT     H2 6707   3.986   6.562   1.385
 2229WAT      O 6708   5.341   6.409   1.616
 2229WAT     H1 6709   5.417   6.466   1.627
 2229WAT     H2 6710   5.342   6.352   1.693
 2230WAT      O 6711   3.691   6.261   2.039
 2230WAT     H1 6712   3.625   6.234   1.975
 2230WAT     H2 6713   3.775   6.250   1.994
 2231WAT      O 6714   5.441   6.494   2.101
 2231WAT     H1 6715   5.478   6.416   2.060
 2231WAT     H2 6716   5.505   6.563   2.083
 2232WAT      O 6717   5.140   6.633   2.642
 2232WAT     H1 6718   5.058   6.676   2.668
 2232WAT     H2 6719   5.180   6.694   2.581
 2233WAT      O 6720   5.346   6.438   1.332
 2233WAT     H1 6721   5.373   6.529   1.319
 2233WAT     H2 6722   5.327   6.432   1.426
 2234WAT      O 6723   4.986   5.741   1.461
 2234WAT     H1 6724   5.027   5.722   1.377
 2234WAT     H2 6725   4.955   5.656   1.493
 2235WAT      O 6726   5.336   6.232   1.831
 2235WAT     H1 6727   5.298   6.155   1.788
 2235WAT     H2 6728   5.263   6.270   1.880
 2236WAT      O 6729   3.795   6.300   2.493
 2236WAT     H1 6730   3.831   6.291   2.581
 2236WAT     H2 6731   3.738   6.224   2.483
 2237WAT      O 6732   5.275   6.147   2.795
 2237WAT     H1 6733   5.251   6.124   2.705
 2237WAT     H2 6734   5.301   6.239   2.790
 2238WAT      O 6735   3.750   5.991   2.884
 2238WAT     H1 6736   3.660   5.988   2.918
 2238WAT     H2 6737   3.804   6.011   2.960
 2239WAT      O 6738   5.118   5.669   3.072
 2239WAT     H1 6739   5.206   5.670   3.111
 2239WAT     H2 6740   5.120   5.596   3.011
 2240WAT      O 6741   3.612   5.982   1.634
 2240WAT     H1 6742   3.522   6.009   1.616
 2240WAT     H2 6743   3.661   6.009   1.556
 2241WAT      O 6744   5.263   6.055   2.161
 2241WAT     H1 6745   5.315   6.005   2.098
 2241WAT     H2 6746   5.322   6.068   2.236
 2242WAT      O 6747   5.281   6.063   2.514
 2242WAT     H1 6748   5.186   6.060   2.525
 2242WAT     H2 6749   5.299   6.154   2.490
 2243WAT      O 6750   3.866   5.888   1.424
 2243WAT     H1 6751   3.937   5.846   1.376
 2243WAT     H2 6752   3.795   5.895   1.361
 2244WAT      O 6753   3.831   5.493   1.329
 2244WAT     H1 6754   3.903   5.547   1.360
 2244WAT     H2 6755   3.858   5.466   1.241
 2245WAT      O 6756   5.212   5.980   1.755
 2245WAT     H1 6757   5.262   5.957   1.834
 2245WAT     H2 6758   5.192   5.896   1.714
 2246WAT      O 6759   3.800   5.418   2.319
 2246WAT     H1 6760   3.865   5.363   2.275
 2246WAT     H2 6761   3.842   5.444   2.401
 2247WAT      O 6762   5.355   5.844   2.009
 2247WAT     H1 6763   5.344   5.828   2.102
 2247WAT     H2 6764   5.431   5.791   1.984
 2248WAT      O 6765   5.190   5.438   2.654
 2248WAT     H1 6766   5.253   5.499   2.691
 2248WAT     H2 6767   5.204   5.441   2.560
 2249WAT      O 6768   5.444   5.627   1.333
 2249WAT     H1 6769   5.536   5.614   1.312
 2249WAT     H2 6770   5.442   5.635   1.428
 2250WAT      O 6771   5.451   5.704   1.595
 2250WAT     H1 6772   5.372   5.698   1.648
 2250WAT     H2 6773   5.472   5.798   1.594
 2251WAT      O 6774   3.775   5.434   2.593
 2251WAT     H1 6775   3.741   5.480   2.670
 2251WAT     H2 6776   3.742   5.345   2.601
 2252WAT      O 6777   4.527   5.553   2.945
 2252WAT     H1 6778   4.521   5.612   3.020
 2252WAT     H2 6779   4.621   5.542   2.931
 2253WAT      O 6780   4.790   5.519   2.909
 2253WAT     H1 6781   4.852   5.551   2.843
 2253WAT     H2 6782   4.845   5.470   2.971
 2254WAT      O 6783   3.843   5.387   2.921
 2254WAT     H1 6784   3.897   5.369   2.844
 2254WAT     H2 6785   3.849   5.308   2.974
 2255WAT      O 6786   4.864   5.375   2.542
 2255WAT     H1 6787   4.777   5.408   2.522
 2255WAT     H2 6788   4.854   5.328   2.624
 2256WAT      O 6789   4.955   5.596   2.680
 2256WAT     H1 6790   4.922   5.514   2.642
 2256WAT     H2 6791   5.050   5.592   2.668
 2257WAT      O 6792   4.639   5.467   2.436
 2257WAT     H1 6793   4.561   5.514   2.464
 2257WAT     H2 6794   4.610   5.376   2.425
 2258WAT      O 6795   5.094   5.537   2.240
 2258WAT     H1 6796   5.138   5.532   2.155
 2258WAT     H2 6797   5.067   5.629   2.247
 2259WAT      O 6798   5.281   5.500   2.041
 2259WAT     H1 6799   5.275   5.406   2.027
 2259WAT     H2 6800   5.359   5.511   2.096
 2260WAT      O 6801   3.774   5.497   1.688
 2260WAT     H1 6802   3.849   5.509   1.631
 2260WAT     H2 6803   3.727   5.581   1.683
 2261WAT      O 6804   4.428   5.709   1.987
 2261WAT     H1 6805   4.346   5.671   1.953
 2261WAT     H2 6806   4.478   5.633   2.017
 2262WAT      O 6807   4.878   5.375   2.111
 2262WAT     H1 6808   4.938   5.432   2.158
 2262WAT     H2 6809   4.804   5.432   2.088
 2263WAT      O 6810   5.192   5.415   1.638
 2263WAT     H1 6811   5.212   5.505   1.665
 2263WAT     H2 6812   5.114   5.392   1.687
 2264WAT      O 6813   4.011   5.550   1.542
 2264WAT     H1 6814   4.064   5.471   1.529
 2264WAT     H2 6815   4.074   5.618   1.565
 2265WAT      O 6816   4.230   5.524   1.847
 2265WAT     H1 6817   4.167   5.454   1.864
 2265WAT     H2 6818   4.176   5.600   1.826
 2266WAT      O 6819   4.243   5.452   3.091
 2266WAT     H1 6820   4.215   5.502   3.014
 2266WAT     H2 6821   4.281   5.372   3.054
 2267WAT      O 6822   4.903   5.393   3.149
 2267WAT     H1 6823   4.892   5.425   3.238
 2267WAT     H2 6824   4.985   5.433   3.119
 2268WAT      O 6825   4.607   6.373   0.373
 2268WAT     H1 6826   4.529   6.325   0.402
 2268WAT     H2 6827   4.672   6.305   0.356
 2269WAT      O 6828   4.008   6.404   0.461
 2269WAT     H1 6829   3.925   6.378   0.501
 2269WAT     H2 6830   4.069   6.411   0.534
 2270WAT      O 6831   3.646   6.160   0.428
 2270WAT     H1 6832   3.703   6.083   0.428
 2270WAT     H2 6833   3.646   6.190   0.337
 2271WAT      O 6834   4.551   6.640   0.374
 2271WAT     H1 6835   4.544   6.546   0.358
 2271WAT     H2 6836   4.627   6.649   0.431
 2272WAT      O 6837   3.770   5.701   0.606
 2272WAT     H1 6838   3.752   5.611   0.634
 2272WAT     H2 6839   3.730   5.756   0.674
 2273WAT      O 6840   4.654   5.921   0.397
 2273WAT     H1 6841   4.691   5.834   0.385
 2273WAT     H2 6842   4.644   5.955   0.307
 2274WAT      O 6843   3.832   5.951   0.467
 2274WAT     H1 6844   3.900   5.977   0.529
 2274WAT     H2 6845   3.800   5.867   0.501
 2275WAT      O 6846   4.251   6.055   0.376
 2275WAT     H1 6847   4.302   6.105   0.440
 2275WAT     H2 6848   4.304   5.978   0.358
 2276WAT      O 6849   5.461   5.872   0.746
 2276WAT     H1 6850   5.391   5.911   0.694
 2276WAT     H2 6851   5.488   5.942   0.806
 2277WAT      O 6852   4.079   5.519   0.803
 2277WAT     H1 6853   4.080   5.571   0.722
 2277WAT     H2 6854   3.996   5.471   0.800
 2278WAT      O 6855   4.204   6.483   0.620
 2278WAT     H1 6856   4.171   6.546   0.685
 2278WAT     H2 6857   4.222   6.536   0.542
 2279WAT      O 6858   5.056   5.865   0.367
 2279WAT     H1 6859   4.985   5.893   0.425
 2279WAT     H2 6860   5.092   5.946   0.331
 2280WAT      O 6861   4.047   5.690   0.603
 2280WAT     H1 6862   4.082   5.775   0.574
 2280WAT     H2 6863   3.954   5.705   0.615
 2281WAT      O 6864   5.363   5.809   0.406
 2281WAT     H1 6865   5.268   5.813   0.419
 2281WAT     H2 6866   5.395   5.891   0.445
 2282WAT      O 6867   4.911   6.501   0.598
 2282WAT     H1 6868   4.952   6.480   0.514
 2282WAT     H2 6869   4.983   6.527   0.655
 2283WAT      O 6870   5.305   6.341   0.607
 2283WAT     H1 6871   5.223   6.348   0.559
 2283WAT     H2 6872   5.365   6.399   0.560
 2284WAT      O 6873   5.002   6.020   0.701
 2284WAT     H1 6874   4.961   6.102   0.727
 2284WAT     H2 6875   4.929   5.961   0.682
 2285WAT      O 6876   4.262   6.667   0.404
 2285WAT     H1 6877   4.232   6.606   0.336
 2285WAT     H2 6878   4.357   6.671   0.393
 2286WAT      O 6879   4.086   5.976   0.566
 2286WAT     H1 6880   4.142   5.987   0.488
 2286WAT     H2 6881   4.138   6.013   0.637
 2287WAT      O 6882   4.171   6.641   1.069
 2287WAT     H1 6883   4.081   6.663   1.094
 2287WAT     H2 6884   4.174   6.653   0.974
 2288WAT      O 6885   4.054   6.328   0.927
 2288WAT     H1 6886   4.040   6.415   0.963
 2288WAT     H2 6887   3.966   6.294   0.912
 2289WAT      O 6888   3.649   6.505   0.518
 2289WAT     H1 6889   3.657   6.518   0.424
 2289WAT     H2 6890   3.710   6.434   0.538
 2290WAT      O 6891   5.369   6.719   0.993
 2290WAT     H1 6892   5.382   6.696   0.901
 2290WAT     H2 6893   5.373   6.636   1.040
 2291WAT      O 6894   5.354   5.925   1.090
 2291WAT     H1 6895   5.293   5.976   1.037
 2291WAT     H2 6896   5.322   5.835   1.084
 2292WAT      O 6897   3.655   6.609   0.772
 2292WAT     H1 6898   3.671   6.562   0.690
 2292WAT     H2 6899   3.701   6.558   0.839
 2293WAT      O 6900   4.132   5.522   0.276
 2293WAT     H1 6901   4.088   5.600   0.243
 2293WAT     H2 6902   4.188   5.554   0.347
 2294WAT      O 6903   4.561   5.809   0.836
 2294WAT     H1 6904   4.514   5.830   0.917
 2294WAT     H2 6905   4.520   5.727   0.806
 2295WAT      O 6906   5.061   5.931   0.949
 2295WAT     H1 6907   4.976   5.901   0.981
 2295WAT     H2 6908   5.045   5.955   0.858
 2296WAT      O 6909   4.770   6.081   1.159
 2296WAT     H1 6910   4.803   5.997   1.125
 2296WAT     H2 6911   4.849   6.133   1.174
 2297WAT      O 6912   4.336   5.577   0.462
 2297WAT     H1 6913   4.365   5.667   0.454
 2297WAT     H2 6914   4.390   5.528   0.400
 2298WAT      O 6915   4.355   6.124   1.115
 2298WAT     H1 6916   4.345   6.030   1.100
 2298WAT     H2 6917   4.439   6.146   1.076
 2299WAT      O 6918   3.868   5.765   0.931
 2299WAT     H1 6919   3.829   5.850   0.951
 2299WAT     H2 6920   3.799   5.702   0.950
 2300WAT      O 6921   4.526   5.774   1.238
 2300WAT     H1 6922   4.457   5.754   1.301
 2300WAT     H2 6923   4.600   5.802   1.291
 2301WAT      O 6924   3.598   5.558   0.334
 2301WAT     H1 6925   3.569   5.615   0.405
 2301WAT     H2 6926   3.673   5.510   0.370
 2302WAT      O 6927   4.753   6.158   0.521
 2302WAT     H1 6928   4.680   6.209   0.556
 2302WAT     H2 6929   4.713   6.076   0.491
 2303WAT      O 6930   4.397   5.825   0.362
 2303WAT     H1 6931   4.397   5.781   0.277
 2303WAT     H2 6932   4.486   5.857   0.372
 2304WAT      O 6933   3.982   5.814   0.258
 2304WAT     H1 6934   3.948   5.861   0.333
 2304WAT     H2 6935   3.906   5.768   0.222
 2305WAT      O 6936   4.799   5.703   0.462
 2305WAT     H1 6937   4.801   5.748   0.547
 2305WAT     H2 6938   4.775   5.613   0.484
 2306WAT      O 6939   5.142   5.444   1.046
 2306WAT     H1 6940   5.175   5.371   1.099
 2306WAT     H2 6941   5.146   5.412   0.956
 2307WAT      O 6942   3.812   6.546   0.988
 2307WAT     H1 6943   3.774   6.482   1.048
 2307WAT     H2 6944   3.843   6.617   1.045
 2308WAT      O 6945   4.427   6.231   0.536
 2308WAT     H1 6946   4.464   6.184   0.611
 2308WAT     H2 6947   4.408   6.319   0.570
 2309WAT      O 6948   4.206   6.135   0.768
 2309WAT     H1 6949   4.176   6.223   0.791
 2309WAT     H2 6950   4.301   6.141   0.772
 2310WAT      O 6951   5.135   6.456   0.407
 2310WAT     H1 6952   5.207   6.505   0.368
 2310WAT     H2 6953   5.115   6.388   0.343
 2311WAT      O 6954   4.673   6.463   0.996
 2311WAT     H1 6955   4.666   6.371   0.970
 2311WAT     H2 6956   4.610   6.472   1.067
 2312WAT      O 6957   4.063   6.523   0.192
 2312WAT     H1 6958   4.115   6.442   0.186
 2312WAT     H2 6959   4.018   6.517   0.276
 2313WAT      O 6960   3.812   6.219   0.883
 2313WAT     H1 6961   3.776   6.286   0.942
 2313WAT     H2 6962   3.782   6.136   0.920
 2314WAT      O 6963   4.132   6.265   1.171
 2314WAT     H1 6964   4.102   6.280   1.081
 2314WAT     H2 6965   4.209   6.209   1.162
 2315WAT      O 6966   5.287   6.409   0.905
 2315WAT     H1 6967   5.215   6.468   0.886
 2315WAT     H2 6968   5.340   6.408   0.826
 2316WAT      O 6969   4.840   6.582   0.255
 2316WAT     H1 6970   4.875   6.522   0.189
 2316WAT     H2 6971   4.752   6.549   0.272
 2317WAT      O 6972   3.669   5.568   0.951
 2317WAT     H1 6973   3.598   5.588   1.011
 2317WAT     H2 6974   3.711   5.491   0.988
 2318WAT      O 6975   4.819   5.818   0.726
 2318WAT     H1 6976   4.855   5.735   0.758
 2318WAT     H2 6977   4.732   5.824   0.767
 2319WAT      O 6978   4.515   6.083   0.748
 2319WAT     H1 6979   4.564   6.130   0.814
 2319WAT     H2 6980   4.529   5.991   0.769
 2320WAT      O 6981   5.235   5.705   0.832
 2320WAT     H1 6982   5.185   5.779   0.866
 2320WAT     H2 6983   5.317   5.743   0.801
 2321WAT      O 6984   5.064   6.229   0.177
 2321WAT     H1 6985   4.970   6.230   0.194
 2321WAT     H2 6986   5.096   6.150   0.221
 2322WAT      O 6987   4.796   6.685   1.225
 2322WAT     H1 6988   4.735   6.687   1.151
 2322WAT     H2 6989   4.766   6.611   1.279
 2323WAT      O 6990   3.684   6.323   1.125
 2323WAT     H1 6991   3.735   6.265   1.182
 2323WAT     H2 6992   3.610   6.351   1.179
 2324WAT      O 6993   4.390   6.463   1.078
 2324WAT     H1 6994   4.313   6.520   1.070
 2324WAT     H2 6995   4.408   6.434   0.989
 2325WAT      O 6996   5.104   6.636   1.134
 2325WAT     H1 6997   5.178   6.670   1.084
 2325WAT     H2 6998   5.028   6.653   1.079
 2326WAT      O 6999   3.888   6.137   1.214
 2326WAT     H1 7000   3.892   6.107   1.305
 2326WAT     H2 7001   3.973   6.177   1.198
 2327WAT      O 7002   4.082   5.995   1.011
 2327WAT     H1 7003   4.029   5.946   0.948
 2327WAT     H2 7004   4.149   6.038   0.958
 2328WAT      O 7005   4.971   6.441   0.987
 2328WAT     H1 7006   5.013   6.457   1.072
 2328WAT     H2 7007   4.878   6.454   1.004
 2329WAT      O 7008   5.019   6.175   1.188
 2329WAT     H1 7009   5.077   6.100   1.179
 2329WAT     H2 7010   5.036   6.228   1.110
 2330WAT      O 7011   4.130   5.691   1.019
 2330WAT     H1 7012   4.121   5.630   0.946
 2330WAT     H2 7013   4.072   5.764   0.996
 2331WAT      O 7014   4.407   5.547   0.722
 2331WAT     H1 7015   4.362   5.549   0.638
 2331WAT     H2 7016   4.344   5.507   0.782
 2332WAT      O 7017   4.448   6.437   0.784
 2332WAT     H1 7018   4.490   6.521   0.767
 2332WAT     H2 7019   4.356   6.450   0.761
 2333WAT      O 7020   4.681   6.210   0.923
 2333WAT     H1 7021   4.693   6.150   0.997
 2333WAT     H2 7022   4.767   6.214   0.881
 2334WAT      O 7023   4.915   6.265   0.780
 2334WAT     H1 7024   4.862   6.318   0.720
 2334WAT     H2 7025   4.949   6.328   0.843
 2335WAT      O 7026   4.358   5.864   1.049
 2335WAT     H1 7027   4.417   5.833   1.117
 2335WAT     H2 7028   4.276   5.817   1.064
 2336WAT      O 7029   4.840   5.826   1.072
 2336WAT     H1 7030   4.771   5.760   1.065
 2336WAT     H2 7031   4.912   5.781   1.116
 2337WAT      O 7032   5.441   6.494   0.223
 2337WAT     H1 7033   5.478   6.416   0.183
 2337WAT     H2 7034   5.505   6.563   0.205
 2338WAT      O 7035   5.140   6.633   0.765
 2338WAT     H1 7036   5.058   6.676   0.791
 2338WAT     H2 7037   5.180   6.694   0.703
 2339WAT      O 7038   3.795   6.300   0.616
 2339WAT     H1 7039   3.831   6.291   0.704
 2339WAT     H2 7040   3.738   6.224   0.606
 2340WAT      O 7041   5.275   6.147   0.917
 2340WAT     H1 7042   5.251   6.124   0.827
 2340WAT     H2 7043   5.301   6.239   0.913
 2341WAT      O 7044   3.750   5.991   1.006
 2341WAT     H1 7045   3.660   5.988   1.040
 2341WAT     H2 7046   3.804   6.011   1.083
 2342WAT      O 7047   5.118   5.669   1.195
 2342WAT     H1 7048   5.206   5.670   1.233
 2342WAT     H2 7049   5.120   5.596   1.134
 2343WAT      O 7050   5.263   6.055   0.284
 2343WAT     H1 7051   5.315   6.005   0.221
 2343WAT     H2 7052   5.322   6.068   0.358
 2344WAT      O 7053   5.281   6.063   0.636
 2344WAT     H1 7054   5.186   6.060   0.648
 2344WAT     H2 7055   5.299   6.154   0.613
 2345WAT      O 7056   3.800   5.418   0.441
 2345WAT     H1 7057   3.865   5.363   0.397
 2345WAT     H2 7058   3.842   5.444   0.523
 2346WAT      O 7059   5.190   5.438   0.777
 2346WAT     H1 7060   5.253   5.499   0.814
 2346WAT     H2 7061   5.204   5.441   0.683
 2347WAT      O 7062   3.775   5.434   0.716
 2347WAT     H1 7063   3.741   5.480   0.792
 2347WAT     H2 7064   3.742   5.345   0.724
 2348WAT      O 7065   4.527   5.553   1.068
 2348WAT     H1 7066   4.521   5.612   1.143
 2348WAT     H2 7067   4.621   5.542   1.053
 2349WAT      O 7068   4.790   5.519   1.032
 2349WAT     H1 7069   4.852   5.551   0.965
 2349WAT     H2 7070   4.845   5.470   1.094
 2350WAT      O 7071   3.843   5.387   1.043
 2350WAT     H1 7072   3.897   5.369   0.967
 2350WAT     H2 7073   3.849   5.308   1.097
 2351WAT      O 7074   4.864   5.375   0.664
 2351WAT     H1 7075   4.777   5.408   0.644
 2351WAT     H2 7076   4.854   5.328   0.747
 2352WAT      O 7077   4.955   5.596   0.803
 2352WAT     H1 7078   4.922   5.514   0.765
 2352WAT     H2 7079   5.050   5.592   0.790
 2353WAT      O 7080   4.639   5.467   0.558
 2353WAT     H1 7081   4.561   5.514   0.586
 2353WAT     H2 7082   4.610   5.376   0.547
 2354WAT      O 7083   5.094   5.537   0.363
 2354WAT     H1 7084   5.138   5.532   0.278
 2354WAT     H2 7085   5.067   5.629   0.370
 2355WAT      O 7086   4.878   5.375   0.233
 2355WAT     H1 7087   4.938   5.432   0.281
 2355WAT     H2 7088   4.804   5.432   0.211
 2356WAT      O 7089   4.243   5.452   1.213
 2356WAT     H1 7090   4.215   5.502   1.137
 2356WAT     H2 7091   4.281   5.372   1.177
 2357WAT      O 7092   4.903   5.393   1.271
 2357WAT     H1 7093   4.892   5.425   1.361
 2357WAT     H2 7094   4.985   5.433   1.242
 2358WAT      O 7095   4.794   4.318   5.817
 2358WAT     H1 7096   4.785   4.226   5.790
 2358WAT     H2 7097   4.752   4.367   5.747
 2359WAT      O 7098   4.607   4.495   6.005
 2359WAT     H1 7099   4.529   4.447   6.034
 2359WAT     H2 7100   4.672   4.427   5.988
 2360WAT      O 7101   5.009   4.936   5.883
 2360WAT     H1 7102   4.963   4.859   5.916
 2360WAT     H2 7103   5.090   4.939   5.934
 2361WAT      O 7104   4.006   4.930   6.113
 2361WAT     H1 7105   4.037   4.841   6.095
 2361WAT     H2 7106   4.081   4.986   6.090
 2362WAT      O 7107   3.849   4.023   5.472
 2362WAT     H1 7108   3.760   4.057   5.461
 2362WAT     H2 7109   3.878   4.003   5.382
 2363WAT      O 7110   3.646   4.283   6.060
 2363WAT     H1 7111   3.703   4.206   6.060
 2363WAT     H2 7112   3.646   4.313   5.969
 2364WAT      O 7113   4.631   5.165   5.845
 2364WAT     H1 7114   4.570   5.210   5.788
 2364WAT     H2 7115   4.717   5.180   5.805
 2365WAT      O 7116   4.551   4.763   6.006
 2365WAT     H1 7117   4.544   4.669   5.990
 2365WAT     H2 7118   4.627   4.772   6.063
 2366WAT      O 7119   4.654   4.044   6.029
 2366WAT     H1 7120   4.691   3.956   6.018
 2366WAT     H2 7121   4.644   4.077   5.940
 2367WAT      O 7122   4.067   3.881   5.575
 2367WAT     H1 7123   4.078   3.971   5.606
 2367WAT     H2 7124   3.976   3.876   5.546
 2368WAT      O 7125   5.032   3.793   5.722
 2368WAT     H1 7126   5.114   3.744   5.726
 2368WAT     H2 7127   5.035   3.852   5.797
 2369WAT      O 7128   4.251   4.178   6.008
 2369WAT     H1 7129   4.302   4.228   6.072
 2369WAT     H2 7130   4.304   4.100   5.991
 2370WAT      O 7131   4.718   4.653   5.585
 2370WAT     H1 7132   4.656   4.699   5.528
 2370WAT     H2 7133   4.769   4.722   5.626
 2371WAT      O 7134   5.056   3.987   5.999
 2371WAT     H1 7135   4.985   4.016   6.057
 2371WAT     H2 7136   5.092   4.068   5.963
 2372WAT      O 7137   3.655   4.722   5.322
 2372WAT     H1 7138   3.617   4.770   5.249
 2372WAT     H2 7139   3.681   4.789   5.385
 2373WAT      O 7140   5.363   3.932   6.038
 2373WAT     H1 7141   5.268   3.935   6.052
 2373WAT     H2 7142   5.395   4.013   6.077
 2374WAT      O 7143   4.416   3.562   5.868
 2374WAT     H1 7144   4.447   3.506   5.796
 2374WAT     H2 7145   4.323   3.575   5.850
 2375WAT      O 7146   4.971   5.133   6.097
 2375WAT     H1 7147   4.972   5.093   6.010
 2375WAT     H2 7148   4.916   5.211   6.087
 2376WAT      O 7149   5.100   4.806   5.606
 2376WAT     H1 7150   5.089   4.711   5.618
 2376WAT     H2 7151   5.100   4.842   5.695
 2377WAT      O 7152   4.655   4.368   5.542
 2377WAT     H1 7153   4.562   4.362   5.565
 2377WAT     H2 7154   4.670   4.462   5.530
 2378WAT      O 7155   4.653   3.995   5.241
 2378WAT     H1 7156   4.559   4.011   5.250
 2378WAT     H2 7157   4.685   4.067   5.187
 2379WAT      O 7158   5.058   4.524   5.592
 2379WAT     H1 7159   4.996   4.491   5.527
 2379WAT     H2 7160   5.056   4.460   5.663
 2380WAT      O 7161   4.215   4.421   5.820
 2380WAT     H1 7162   4.175   4.350   5.770
 2380WAT     H2 7163   4.224   4.386   5.909
 2381WAT      O 7164   4.262   4.789   6.036
 2381WAT     H1 7165   4.232   4.729   5.968
 2381WAT     H2 7166   4.357   4.793   6.025
 2382WAT      O 7167   4.875   4.448   5.293
 2382WAT     H1 7168   4.919   4.364   5.278
 2382WAT     H2 7169   4.946   4.512   5.301
 2383WAT      O 7170   4.686   4.942   5.690
 2383WAT     H1 7171   4.730   5.016   5.648
 2383WAT     H2 7172   4.680   4.966   5.782
 2384WAT      O 7173   5.233   3.574   5.124
 2384WAT     H1 7174   5.202   3.583   5.214
 2384WAT     H2 7175   5.309   3.631   5.119
 2385WAT      O 7176   3.885   4.310   5.570
 2385WAT     H1 7177   3.873   4.383   5.509
 2385WAT     H2 7178   3.854   4.233   5.522
 2386WAT      O 7179   3.774   4.797   5.792
 2386WAT     H1 7180   3.733   4.812   5.706
 2386WAT     H2 7181   3.863   4.769   5.771
 2387WAT      O 7182   4.953   5.241   5.425
 2387WAT     H1 7183   4.937   5.212   5.515
 2387WAT     H2 7184   4.936   5.163   5.372
 2388WAT      O 7185   4.201   5.219   5.603
 2388WAT     H1 7186   4.183   5.127   5.582
 2388WAT     H2 7187   4.115   5.255   5.627
 2389WAT      O 7188   4.923   4.992   5.281
 2389WAT     H1 7189   4.854   4.992   5.215
 2389WAT     H2 7190   4.997   4.949   5.238
 2390WAT      O 7191   4.880   5.154   5.689
 2390WAT     H1 7192   4.925   5.076   5.720
 2390WAT     H2 7193   4.914   5.225   5.743
 2391WAT      O 7194   4.132   3.645   5.908
 2391WAT     H1 7195   4.088   3.723   5.875
 2391WAT     H2 7196   4.188   3.677   5.979
 2392WAT      O 7197   4.443   3.607   5.396
 2392WAT     H1 7198   4.381   3.606   5.469
 2392WAT     H2 7199   4.435   3.520   5.357
 2393WAT      O 7200   4.336   3.699   6.094
 2393WAT     H1 7201   4.365   3.790   6.086
 2393WAT     H2 7202   4.390   3.650   6.033
 2394WAT      O 7203   4.111   4.157   5.681
 2394WAT     H1 7204   4.088   4.135   5.771
 2394WAT     H2 7205   4.033   4.200   5.646
 2395WAT      O 7206   4.834   4.158   5.541
 2395WAT     H1 7207   4.774   4.230   5.522
 2395WAT     H2 7208   4.889   4.151   5.463
 2396WAT      O 7209   4.695   4.021   5.744
 2396WAT     H1 7210   4.734   4.053   5.663
 2396WAT     H2 7211   4.731   3.933   5.755
 2397WAT      O 7212   3.598   3.680   5.966
 2397WAT     H1 7213   3.569   3.737   6.037
 2397WAT     H2 7214   3.673   3.632   6.002
 2398WAT      O 7215   3.617   4.074   5.087
 2398WAT     H1 7216   3.609   4.169   5.101
 2398WAT     H2 7217   3.582   4.060   4.999
 2399WAT      O 7218   4.397   3.948   5.994
 2399WAT     H1 7219   4.397   3.904   5.909
 2399WAT     H2 7220   4.486   3.980   6.005
 2400WAT      O 7221   3.982   3.936   5.890
 2400WAT     H1 7222   3.948   3.984   5.966
 2400WAT     H2 7223   3.906   3.891   5.854
 2401WAT      O 7224   4.403   4.048   5.293
 2401WAT     H1 7225   4.415   4.044   5.388
 2401WAT     H2 7226   4.365   4.134   5.277
 2402WAT      O 7227   4.304   4.279   5.233
 2402WAT     H1 7228   4.248   4.234   5.170
 2402WAT     H2 7229   4.375   4.315   5.179
 2403WAT      O 7230   3.713   3.828   5.782
 2403WAT     H1 7231   3.685   3.792   5.865
 2403WAT     H2 7232   3.707   3.755   5.720
 2404WAT      O 7233   4.059   4.679   5.460
 2404WAT     H1 7234   3.981   4.625   5.444
 2404WAT     H2 7235   4.132   4.627   5.426
 2405WAT      O 7236   5.135   4.578   6.039
 2405WAT     H1 7237   5.207   4.628   6.000
 2405WAT     H2 7238   5.115   4.510   5.975
 2406WAT      O 7239   4.681   3.718   5.454
 2406WAT     H1 7240   4.599   3.668   5.446
 2406WAT     H2 7241   4.661   3.802   5.412
 2407WAT      O 7242   4.952   4.155   5.283
 2407WAT     H1 7243   5.041   4.186   5.266
 2407WAT     H2 7244   4.949   4.067   5.244
 2408WAT      O 7245   4.063   4.645   5.824
 2408WAT     H1 7246   4.115   4.565   5.818
 2408WAT     H2 7247   4.018   4.639   5.908
 2409WAT      O 7248   4.552   4.772   5.351
 2409WAT     H1 7249   4.586   4.846   5.302
 2409WAT     H2 7250   4.469   4.803   5.387
 2410WAT      O 7251   5.179   4.286   5.230
 2410WAT     H1 7252   5.171   4.329   5.145
 2410WAT     H2 7253   5.251   4.332   5.273
 2411WAT      O 7254   5.282   4.971   5.503
 2411WAT     H1 7255   5.218   4.906   5.530
 2411WAT     H2 7256   5.244   5.012   5.425
 2412WAT      O 7257   4.840   4.704   5.888
 2412WAT     H1 7258   4.875   4.644   5.822
 2412WAT     H2 7259   4.752   4.672   5.905
 2413WAT      O 7260   4.449   4.780   5.628
 2413WAT     H1 7261   4.518   4.835   5.666
 2413WAT     H2 7262   4.370   4.835   5.632
 2414WAT      O 7263   3.663   4.342   5.177
 2414WAT     H1 7264   3.750   4.370   5.206
 2414WAT     H2 7265   3.614   4.423   5.166
 2415WAT      O 7266   4.379   4.481   5.590
 2415WAT     H1 7267   4.425   4.562   5.612
 2415WAT     H2 7268   4.344   4.449   5.673
 2416WAT      O 7269   3.969   3.515   5.637
 2416WAT     H1 7270   3.956   3.514   5.732
 2416WAT     H2 7271   3.887   3.549   5.602
 2417WAT      O 7272   5.121   4.860   5.157
 2417WAT     H1 7273   5.099   4.789   5.216
 2417WAT     H2 7274   5.082   4.836   5.073
 2418WAT      O 7275   3.699   5.263   5.234
 2418WAT     H1 7276   3.735   5.323   5.169
 2418WAT     H2 7277   3.685   5.318   5.311
 2419WAT      O 7278   5.079   4.652   5.323
 2419WAT     H1 7279   5.051   4.698   5.402
 2419WAT     H2 7280   5.159   4.606   5.350
 2420WAT      O 7281   4.301   5.001   5.316
 2420WAT     H1 7282   4.300   5.075   5.254
 2420WAT     H2 7283   4.209   4.977   5.325
 2421WAT      O 7284   3.861   4.524   5.390
 2421WAT     H1 7285   3.800   4.598   5.391
 2421WAT     H2 7286   3.909   4.533   5.308
 2422WAT      O 7287   5.155   3.836   5.439
 2422WAT     H1 7288   5.092   3.846   5.367
 2422WAT     H2 7289   5.106   3.858   5.518
 2423WAT      O 7290   4.600   5.008   5.182
 2423WAT     H1 7291   4.610   4.987   5.089
 2423WAT     H2 7292   4.510   4.982   5.203
 2424WAT      O 7293   4.352   4.064   5.580
 2424WAT     H1 7294   4.281   4.110   5.624
 2424WAT     H2 7295   4.380   3.998   5.644
 2425WAT      O 7296   4.755   3.736   5.724
 2425WAT     H1 7297   4.743   3.738   5.629
 2425WAT     H2 7298   4.850   3.741   5.736
 2426WAT      O 7299   4.464   5.260   5.652
 2426WAT     H1 7300   4.489   5.256   5.559
 2426WAT     H2 7301   4.369   5.247   5.651
 2427WAT      O 7302   4.172   3.894   5.318
 2427WAT     H1 7303   4.257   3.938   5.311
 2427WAT     H2 7304   4.136   3.926   5.401
 2428WAT      O 7305   5.064   4.352   5.809
 2428WAT     H1 7306   4.970   4.353   5.827
 2428WAT     H2 7307   5.096   4.273   5.854
 2429WAT      O 7308   4.062   4.520   5.165
 2429WAT     H1 7309   4.139   4.509   5.221
 2429WAT     H2 7310   4.070   4.450   5.100
 2430WAT      O 7311   3.932   4.263   5.234
 2430WAT     H1 7312   3.940   4.168   5.245
 2430WAT     H2 7313   4.021   4.296   5.244
 2431WAT      O 7314   5.265   5.069   5.977
 2431WAT     H1 7315   5.277   5.151   6.024
 2431WAT     H2 7316   5.351   5.048   5.942
 2432WAT      O 7317   4.012   5.278   5.944
 2432WAT     H1 7318   4.085   5.223   5.971
 2432WAT     H2 7319   4.050   5.364   5.930
 2433WAT      O 7320   3.700   4.885   5.531
 2433WAT     H1 7321   3.608   4.909   5.530
 2433WAT     H2 7322   3.747   4.967   5.519
 2434WAT      O 7323   4.323   5.195   5.126
 2434WAT     H1 7324   4.402   5.224   5.081
 2434WAT     H2 7325   4.271   5.152   5.058
 2435WAT      O 7326   5.228   5.118   5.268
 2435WAT     H1 7327   5.200   5.077   5.187
 2435WAT     H2 7328   5.208   5.211   5.256
 2436WAT      O 7329   4.375   4.717   5.113
 2436WAT     H1 7330   4.364   4.656   5.185
 2436WAT     H2 7331   4.358   4.665   5.034
 2437WAT      O 7332   4.699   4.623   5.173
 2437WAT     H1 7333   4.644   4.668   5.237
 2437WAT     H2 7334   4.761   4.573   5.225
 2438WAT      O 7335   4.265   4.519   5.363
 2438WAT     H1 7336   4.308   4.503   5.447
 2438WAT     H2 7337   4.278   4.438   5.313
 2439WAT      O 7338   4.517   4.422   5.087
 2439WAT     H1 7339   4.569   4.350   5.051
 2439WAT     H2 7340   4.581   4.486   5.117
 2440WAT      O 7341   4.155   4.127   5.057
 2440WAT     H1 7342   4.135   4.040   5.093
 2440WAT     H2 7343   4.138   4.118   4.963
 2441WAT      O 7344   4.903   3.608   5.310
 2441WAT     H1 7345   4.931   3.523   5.346
 2441WAT     H2 7346   4.826   3.631   5.361
 2442WAT      O 7347   4.035   3.837   5.056
 2442WAT     H1 7348   4.065   3.837   4.965
 2442WAT     H2 7349   4.109   3.802   5.106
 2443WAT      O 7350   4.357   3.731   5.155
 2443WAT     H1 7351   4.322   3.663   5.097
 2443WAT     H2 7352   4.377   3.685   5.236
 2444WAT      O 7353   4.573   5.230   5.316
 2444WAT     H1 7354   4.663   5.264   5.319
 2444WAT     H2 7355   4.576   5.158   5.254
 2445WAT      O 7356   3.937   4.767   5.139
 2445WAT     H1 7357   3.981   4.821   5.205
 2445WAT     H2 7358   3.986   4.685   5.140
 2446WAT      O 7359   3.659   5.046   5.884
 2446WAT     H1 7360   3.692   4.959   5.861
 2446WAT     H2 7361   3.702   5.067   5.968
 2447WAT      O 7362   4.118   4.879   5.650
 2447WAT     H1 7363   4.088   4.867   5.741
 2447WAT     H2 7364   4.108   4.793   5.610
 2448WAT      O 7365   5.395   4.857   5.121
 2448WAT     H1 7366   5.312   4.864   5.168
 2448WAT     H2 7367   5.413   4.946   5.090
 2449WAT      O 7368   5.341   4.532   5.371
 2449WAT     H1 7369   5.417   4.589   5.382
 2449WAT     H2 7370   5.342   4.475   5.448
 2450WAT      O 7371   3.691   4.384   5.794
 2450WAT     H1 7372   3.625   4.357   5.730
 2450WAT     H2 7373   3.775   4.373   5.749
 2451WAT      O 7374   5.441   4.617   5.856
 2451WAT     H1 7375   5.478   4.539   5.815
 2451WAT     H2 7376   5.505   4.686   5.838
 2452WAT      O 7377   5.346   4.561   5.087
 2452WAT     H1 7378   5.373   4.652   5.074
 2452WAT     H2 7379   5.327   4.555   5.180
 2453WAT      O 7380   4.986   3.863   5.216
 2453WAT     H1 7381   5.027   3.845   5.132
 2453WAT     H2 7382   4.955   3.778   5.247
 2454WAT      O 7383   5.336   4.355   5.586
 2454WAT     H1 7384   5.298   4.278   5.543
 2454WAT     H2 7385   5.263   4.393   5.635
 2455WAT      O 7386   3.612   4.105   5.388
 2455WAT     H1 7387   3.522   4.131   5.371
 2455WAT     H2 7388   3.661   4.132   5.310
 2456WAT      O 7389   5.263   4.177   5.916
 2456WAT     H1 7390   5.315   4.128   5.853
 2456WAT     H2 7391   5.322   4.191   5.991
 2457WAT      O 7392   3.866   4.011   5.179
 2457WAT     H1 7393   3.937   3.968   5.131
 2457WAT     H2 7394   3.795   4.017   5.116
 2458WAT      O 7395   3.831   3.616   5.083
 2458WAT     H1 7396   3.903   3.670   5.115
 2458WAT     H2 7397   3.858   3.589   4.996
 2459WAT      O 7398   5.212   4.103   5.510
 2459WAT     H1 7399   5.262   4.080   5.589
 2459WAT     H2 7400   5.192   4.019   5.468
 2460WAT      O 7401   5.355   3.966   5.763
 2460WAT     H1 7402   5.344   3.951   5.857
 2460WAT     H2 7403   5.431   3.914   5.739
 2461WAT      O 7404   5.444   3.750   5.088
 2461WAT     H1 7405   5.536   3.736   5.067
 2461WAT     H2 7406   5.442   3.757   5.183
 2462WAT      O 7407   5.451   3.827   5.350
 2462WAT     H1 7408   5.372   3.820   5.403
 2462WAT     H2 7409   5.472   3.920   5.349
 2463WAT      O 7410   5.145   5.231   5.749
 2463WAT     H1 7411   5.205   5.198   5.682
 2463WAT     H2 7412   5.171   5.183   5.829
 2464WAT      O 7413   5.201   5.296   6.132
 2464WAT     H1 7414   5.155   5.371   6.095
 2464WAT     H2 7415   5.138   5.224   6.127
 2465WAT      O 7416   4.243   5.126   6.050
 2465WAT     H1 7417   4.295   5.065   5.997
 2465WAT     H2 7418   4.308   5.177   6.099
 2466WAT      O 7419   5.094   3.660   5.995
 2466WAT     H1 7420   5.138   3.654   5.910
 2466WAT     H2 7421   5.067   3.751   6.002
 2467WAT      O 7422   5.281   3.623   5.796
 2467WAT     H1 7423   5.275   3.528   5.781
 2467WAT     H2 7424   5.359   3.634   5.851
 2468WAT      O 7425   3.711   5.237   5.692
 2468WAT     H1 7426   3.695   5.173   5.762
 2468WAT     H2 7427   3.625   5.257   5.657
 2469WAT      O 7428   3.774   3.620   5.443
 2469WAT     H1 7429   3.849   3.631   5.385
 2469WAT     H2 7430   3.727   3.704   5.438
 2470WAT      O 7431   4.428   3.831   5.742
 2470WAT     H1 7432   4.346   3.794   5.708
 2470WAT     H2 7433   4.478   3.756   5.772
 2471WAT      O 7434   4.878   3.498   5.866
 2471WAT     H1 7435   4.938   3.555   5.913
 2471WAT     H2 7436   4.804   3.554   5.843
 2472WAT      O 7437   5.192   3.538   5.393
 2472WAT     H1 7438   5.212   3.628   5.420
 2472WAT     H2 7439   5.114   3.515   5.442
 2473WAT      O 7440   3.872   5.106   5.437
 2473WAT     H1 7441   3.819   5.144   5.367
 2473WAT     H2 7442   3.864   5.169   5.509
 2474WAT      O 7443   4.011   3.673   5.297
 2474WAT     H1 7444   4.064   3.594   5.284
 2474WAT     H2 7445   4.074   3.740   5.320
 2475WAT      O 7446   4.230   3.646   5.602
 2475WAT     H1 7447   4.167   3.576   5.619
 2475WAT     H2 7448   4.176   3.722   5.581
 2476WAT      O 7449   5.348   5.262   5.569
 2476WAT     H1 7450   5.365   5.193   5.505
 2476WAT     H2 7451   5.278   5.314   5.530
 2477WAT      O 7452   4.132   5.301   5.324
 2477WAT     H1 7453   4.205   5.272   5.270
 2477WAT     H2 7454   4.158   5.277   5.413
 2478WAT      O 7455   4.048   4.913   5.325
 2478WAT     H1 7456   3.985   4.959   5.380
 2478WAT     H2 7457   4.060   4.828   5.368
 2479WAT      O 7458   4.794   4.318   3.940
 2479WAT     H1 7459   4.785   4.226   3.913
 2479WAT     H2 7460   4.752   4.367   3.869
 2480WAT      O 7461   4.607   4.495   4.128
 2480WAT     H1 7462   4.529   4.447   4.157
 2480WAT     H2 7463   4.672   4.427   4.111
 2481WAT      O 7464   4.008   4.527   4.216
 2481WAT     H1 7465   3.925   4.501   4.256
 2481WAT     H2 7466   4.069   4.534   4.289
 2482WAT      O 7467   5.009   4.936   4.006
 2482WAT     H1 7468   4.963   4.859   4.039
 2482WAT     H2 7469   5.090   4.939   4.057
 2483WAT      O 7470   4.006   4.930   4.235
 2483WAT     H1 7471   4.037   4.841   4.217
 2483WAT     H2 7472   4.081   4.986   4.213
 2484WAT      O 7473   3.849   4.023   3.594
 2484WAT     H1 7474   3.760   4.057   3.584
 2484WAT     H2 7475   3.878   4.003   3.505
 2485WAT      O 7476   3.646   4.283   4.183
 2485WAT     H1 7477   3.703   4.206   4.183
 2485WAT     H2 7478   3.646   4.313   4.092
 2486WAT      O 7479   4.631   5.165   3.968
 2486WAT     H1 7480   4.570   5.210   3.911
 2486WAT     H2 7481   4.717   5.180   3.928
 2487WAT      O 7482   4.551   4.763   4.129
 2487WAT     H1 7483   4.544   4.669   4.113
 2487WAT     H2 7484   4.627   4.772   4.186
 2488WAT      O 7485   3.770   3.823   4.361
 2488WAT     H1 7486   3.752   3.734   4.389
 2488WAT     H2 7487   3.730   3.878   4.429
 2489WAT      O 7488   4.654   4.044   4.151
 2489WAT     H1 7489   4.691   3.956   4.140
 2489WAT     H2 7490   4.644   4.077   4.062
 2490WAT      O 7491   4.067   3.881   3.698
 2490WAT     H1 7492   4.078   3.971   3.728
 2490WAT     H2 7493   3.976   3.876   3.669
 2491WAT      O 7494   5.032   3.793   3.845
 2491WAT     H1 7495   5.114   3.744   3.849
 2491WAT     H2 7496   5.035   3.852   3.920
 2492WAT      O 7497   3.832   4.073   4.222
 2492WAT     H1 7498   3.900   4.099   4.284
 2492WAT     H2 7499   3.800   3.989   4.255
 2493WAT      O 7500   4.251   4.178   4.131
 2493WAT     H1 7501   4.302   4.228   4.195
 2493WAT     H2 7502   4.304   4.100   4.113
 2494WAT      O 7503   5.461   3.995   4.501
 2494WAT     H1 7504   5.391   4.034   4.449
 2494WAT     H2 7505   5.488   4.064   4.561
 2495WAT      O 7506   4.079   3.642   4.557
 2495WAT     H1 7507   4.080   3.693   4.477
 2495WAT     H2 7508   3.996   3.594   4.555
 2496WAT      O 7509   4.718   4.653   3.707
 2496WAT     H1 7510   4.656   4.699   3.651
 2496WAT     H2 7511   4.769   4.722   3.749
 2497WAT      O 7512   4.204   4.606   4.375
 2497WAT     H1 7513   4.171   4.668   4.439
 2497WAT     H2 7514   4.222   4.658   4.297
 2498WAT      O 7515   5.056   3.987   4.122
 2498WAT     H1 7516   4.985   4.016   4.180
 2498WAT     H2 7517   5.092   4.068   4.086
 2499WAT      O 7518   4.047   3.813   4.358
 2499WAT     H1 7519   4.082   3.897   4.329
 2499WAT     H2 7520   3.954   3.828   4.370
 2500WAT      O 7521   4.126   4.803   4.557
 2500WAT     H1 7522   4.187   4.870   4.529
 2500WAT     H2 7523   4.039   4.843   4.548
 2501WAT      O 7524   3.655   4.722   3.445
 2501WAT     H1 7525   3.617   4.770   3.372
 2501WAT     H2 7526   3.681   4.789   3.508
 2502WAT      O 7527   5.217   4.949   4.348
 2502WAT     H1 7528   5.149   5.016   4.347
 2502WAT     H2 7529   5.271   4.969   4.272
 2503WAT      O 7530   5.363   3.932   4.161
 2503WAT     H1 7531   5.268   3.935   4.174
 2503WAT     H2 7532   5.395   4.013   4.200
 2504WAT      O 7533   4.416   3.562   3.991
 2504WAT     H1 7534   4.447   3.506   3.919
 2504WAT     H2 7535   4.323   3.575   3.972
 2505WAT      O 7536   4.971   5.133   4.220
 2505WAT     H1 7537   4.972   5.093   4.133
 2505WAT     H2 7538   4.916   5.211   4.209
 2506WAT      O 7539   5.100   4.806   3.729
 2506WAT     H1 7540   5.089   4.711   3.741
 2506WAT     H2 7541   5.100   4.842   3.817
 2507WAT      O 7542   4.911   4.624   4.352
 2507WAT     H1 7543   4.952   4.602   4.269
 2507WAT     H2 7544   4.983   4.649   4.410
 2508WAT      O 7545   4.655   4.368   3.664
 2508WAT     H1 7546   4.562   4.362   3.687
 2508WAT     H2 7547   4.670   4.462   3.653
 2509WAT      O 7548   4.653   3.995   3.364
 2509WAT     H1 7549   4.559   4.011   3.372
 2509WAT     H2 7550   4.685   4.067   3.309
 2510WAT      O 7551   5.305   4.464   4.362
 2510WAT     H1 7552   5.223   4.470   4.314
 2510WAT     H2 7553   5.365   4.522   4.315
 2511WAT      O 7554   5.058   4.524   3.715
 2511WAT     H1 7555   4.996   4.491   3.650
 2511WAT     H2 7556   5.056   4.460   3.785
 2512WAT      O 7557   5.002   4.142   4.456
 2512WAT     H1 7558   4.961   4.225   4.482
 2512WAT     H2 7559   4.929   4.084   4.437
 2513WAT      O 7560   4.215   4.421   3.942
 2513WAT     H1 7561   4.175   4.350   3.893
 2513WAT     H2 7562   4.224   4.386   4.031
 2514WAT      O 7563   4.262   4.789   4.159
 2514WAT     H1 7564   4.232   4.729   4.091
 2514WAT     H2 7565   4.357   4.793   4.148
 2515WAT      O 7566   4.086   4.098   4.320
 2515WAT     H1 7567   4.142   4.109   4.243
 2515WAT     H2 7568   4.138   4.136   4.392
 2516WAT      O 7569   5.071   5.147   4.525
 2516WAT     H1 7570   5.023   5.228   4.506
 2516WAT     H2 7571   5.002   5.082   4.540
 2517WAT      O 7572   4.171   4.763   4.824
 2517WAT     H1 7573   4.081   4.786   4.849
 2517WAT     H2 7574   4.174   4.776   4.729
 2518WAT      O 7575   4.875   4.448   3.415
 2518WAT     H1 7576   4.919   4.364   3.401
 2518WAT     H2 7577   4.946   4.512   3.424
 2519WAT      O 7578   4.054   4.450   4.681
 2519WAT     H1 7579   4.040   4.538   4.718
 2519WAT     H2 7580   3.966   4.416   4.667
 2520WAT      O 7581   4.686   4.942   3.812
 2520WAT     H1 7582   4.730   5.016   3.771
 2520WAT     H2 7583   4.680   4.966   3.904
 2521WAT      O 7584   4.234   5.045   4.902
 2521WAT     H1 7585   4.231   5.085   4.816
 2521WAT     H2 7586   4.217   4.952   4.886
 2522WAT      O 7587   5.233   3.574   3.247
 2522WAT     H1 7588   5.202   3.583   3.337
 2522WAT     H2 7589   5.309   3.631   3.242
 2523WAT      O 7590   3.885   4.310   3.692
 2523WAT     H1 7591   3.873   4.383   3.631
 2523WAT     H2 7592   3.854   4.233   3.645
 2524WAT      O 7593   5.429   5.123   5.032
 2524WAT     H1 7594   5.476   5.171   5.100
 2524WAT     H2 7595   5.491   5.116   4.959
 2525WAT      O 7596   3.649   4.627   4.273
 2525WAT     H1 7597   3.657   4.641   4.179
 2525WAT     H2 7598   3.710   4.557   4.292
 2526WAT      O 7599   3.774   4.797   3.914
 2526WAT     H1 7600   3.733   4.812   3.829
 2526WAT     H2 7601   3.863   4.769   3.894
 2527WAT      O 7602   5.369   4.842   4.748
 2527WAT     H1 7603   5.382   4.818   4.656
 2527WAT     H2 7604   5.373   4.759   4.795
 2528WAT      O 7605   4.755   5.212   4.605
 2528WAT     H1 7606   4.807   5.203   4.685
 2528WAT     H2 7607   4.671   5.247   4.634
 2529WAT      O 7608   4.953   5.241   3.548
 2529WAT     H1 7609   4.937   5.212   3.638
 2529WAT     H2 7610   4.936   5.163   3.494
 2530WAT      O 7611   4.201   5.219   3.725
 2530WAT     H1 7612   4.183   5.127   3.704
 2530WAT     H2 7613   4.115   5.255   3.749
 2531WAT      O 7614   4.923   4.992   3.404
 2531WAT     H1 7615   4.854   4.992   3.338
 2531WAT     H2 7616   4.997   4.949   3.361
 2532WAT      O 7617   4.880   5.154   3.811
 2532WAT     H1 7618   4.925   5.076   3.843
 2532WAT     H2 7619   4.914   5.225   3.866
 2533WAT      O 7620   5.354   4.047   4.844
 2533WAT     H1 7621   5.293   4.098   4.792
 2533WAT     H2 7622   5.322   3.957   4.839
 2534WAT      O 7623   3.655   4.732   4.527
 2534WAT     H1 7624   3.671   4.685   4.445
 2534WAT     H2 7625   3.701   4.681   4.594
 2535WAT      O 7626   4.132   3.645   4.031
 2535WAT     H1 7627   4.088   3.723   3.998
 2535WAT     H2 7628   4.188   3.677   4.101
 2536WAT      O 7629   4.561   3.931   4.591
 2536WAT     H1 7630   4.514   3.952   4.672
 2536WAT     H2 7631   4.520   3.850   4.561
 2537WAT      O 7632   5.061   4.053   4.704
 2537WAT     H1 7633   4.976   4.023   4.736
 2537WAT     H2 7634   5.045   4.078   4.613
 2538WAT      O 7635   4.770   4.203   4.914
 2538WAT     H1 7636   4.803   4.120   4.880
 2538WAT     H2 7637   4.849   4.256   4.929
 2539WAT      O 7638   4.443   3.607   3.519
 2539WAT     H1 7639   4.381   3.606   3.591
 2539WAT     H2 7640   4.435   3.520   3.479
 2540WAT      O 7641   4.336   3.699   4.217
 2540WAT     H1 7642   4.365   3.790   4.209
 2540WAT     H2 7643   4.390   3.650   4.155
 2541WAT      O 7644   4.111   4.157   3.804
 2541WAT     H1 7645   4.088   4.135   3.894
 2541WAT     H2 7646   4.033   4.200   3.769
 2542WAT      O 7647   4.834   4.158   3.663
 2542WAT     H1 7648   4.774   4.230   3.645
 2542WAT     H2 7649   4.889   4.151   3.585
 2543WAT      O 7650   4.355   4.247   4.870
 2543WAT     H1 7651   4.345   4.153   4.855
 2543WAT     H2 7652   4.439   4.269   4.831
 2544WAT      O 7653   4.695   4.021   3.866
 2544WAT     H1 7654   4.734   4.053   3.785
 2544WAT     H2 7655   4.731   3.933   3.878
 2545WAT      O 7656   3.868   3.888   4.685
 2545WAT     H1 7657   3.829   3.973   4.706
 2545WAT     H2 7658   3.799   3.824   4.705
 2546WAT      O 7659   4.526   3.896   4.992
 2546WAT     H1 7660   4.457   3.877   5.056
 2546WAT     H2 7661   4.600   3.925   5.046
 2547WAT      O 7662   3.598   3.680   4.089
 2547WAT     H1 7663   3.569   3.737   4.160
 2547WAT     H2 7664   3.673   3.632   4.125
 2548WAT      O 7665   4.753   4.280   4.276
 2548WAT     H1 7666   4.680   4.331   4.311
 2548WAT     H2 7667   4.713   4.199   4.246
 2549WAT      O 7668   4.397   3.948   4.116
 2549WAT     H1 7669   4.397   3.904   4.032
 2549WAT     H2 7670   4.486   3.980   4.127
 2550WAT      O 7671   3.982   3.936   4.012
 2550WAT     H1 7672   3.948   3.984   4.088
 2550WAT     H2 7673   3.906   3.891   3.976
 2551WAT      O 7674   4.403   4.048   3.416
 2551WAT     H1 7675   4.415   4.044   3.510
 2551WAT     H2 7676   4.365   4.134   3.400
 2552WAT      O 7677   4.799   3.826   4.217
 2552WAT     H1 7678   4.801   3.871   4.302
 2552WAT     H2 7679   4.775   3.736   4.239
 2553WAT      O 7680   4.304   4.279   3.355
 2553WAT     H1 7681   4.248   4.234   3.293
 2553WAT     H2 7682   4.375   4.315   3.302
 2554WAT      O 7683   5.142   3.567   4.801
 2554WAT     H1 7684   5.175   3.494   4.854
 2554WAT     H2 7685   5.146   3.535   4.711
 2555WAT      O 7686   3.812   4.669   4.743
 2555WAT     H1 7687   3.774   4.605   4.803
 2555WAT     H2 7688   3.843   4.739   4.800
 2556WAT      O 7689   4.427   4.354   4.291
 2556WAT     H1 7690   4.464   4.306   4.366
 2556WAT     H2 7691   4.408   4.441   4.325
 2557WAT      O 7692   3.713   3.828   3.904
 2557WAT     H1 7693   3.685   3.792   3.988
 2557WAT     H2 7694   3.707   3.755   3.843
 2558WAT      O 7695   4.206   4.258   4.523
 2558WAT     H1 7696   4.176   4.346   4.545
 2558WAT     H2 7697   4.301   4.264   4.527
 2559WAT      O 7698   4.059   4.679   3.583
 2559WAT     H1 7699   3.981   4.625   3.567
 2559WAT     H2 7700   4.132   4.627   3.549
 2560WAT      O 7701   5.135   4.578   4.162
 2560WAT     H1 7702   5.207   4.628   4.123
 2560WAT     H2 7703   5.115   4.510   4.097
 2561WAT      O 7704   4.681   3.718   3.576
 2561WAT     H1 7705   4.599   3.668   3.569
 2561WAT     H2 7706   4.661   3.802   3.535
 2562WAT      O 7707   4.673   4.585   4.751
 2562WAT     H1 7708   4.666   4.493   4.725
 2562WAT     H2 7709   4.610   4.595   4.822
 2563WAT      O 7710   4.952   4.155   3.406
 2563WAT     H1 7711   5.041   4.186   3.388
 2563WAT     H2 7712   4.949   4.067   3.367
 2564WAT      O 7713   4.063   4.645   3.946
 2564WAT     H1 7714   4.115   4.565   3.941
 2564WAT     H2 7715   4.018   4.639   4.031
 2565WAT      O 7716   4.552   4.772   3.474
 2565WAT     H1 7717   4.586   4.846   3.424
 2565WAT     H2 7718   4.469   4.803   3.510
 2566WAT      O 7719   3.812   4.342   4.638
 2566WAT     H1 7720   3.776   4.408   4.696
 2566WAT     H2 7721   3.782   4.259   4.675
 2567WAT      O 7722   4.132   4.388   4.926
 2567WAT     H1 7723   4.102   4.402   4.836
 2567WAT     H2 7724   4.209   4.332   4.917
 2568WAT      O 7725   4.666   4.867   4.726
 2568WAT     H1 7726   4.667   4.774   4.704
 2568WAT     H2 7727   4.595   4.876   4.790
 2569WAT      O 7728   5.179   4.286   3.353
 2569WAT     H1 7729   5.171   4.329   3.268
 2569WAT     H2 7730   5.251   4.332   3.396
 2570WAT      O 7731   5.287   4.532   4.660
 2570WAT     H1 7732   5.215   4.591   4.641
 2570WAT     H2 7733   5.340   4.531   4.580
 2571WAT      O 7734   5.282   4.971   3.625
 2571WAT     H1 7735   5.218   4.906   3.653
 2571WAT     H2 7736   5.244   5.012   3.548
 2572WAT      O 7737   4.840   4.704   4.010
 2572WAT     H1 7738   4.875   4.644   3.944
 2572WAT     H2 7739   4.752   4.672   4.027
 2573WAT      O 7740   4.449   4.780   3.751
 2573WAT     H1 7741   4.518   4.835   3.789
 2573WAT     H2 7742   4.370   4.835   3.754
 2574WAT      O 7743   3.663   4.342   3.300
 2574WAT     H1 7744   3.750   4.370   3.328
 2574WAT     H2 7745   3.614   4.423   3.289
 2575WAT      O 7746   4.379   4.481   3.712
 2575WAT     H1 7747   4.425   4.562   3.735
 2575WAT     H2 7748   4.344   4.449   3.795
 2576WAT      O 7749   4.609   5.032   4.435
 2576WAT     H1 7750   4.674   5.052   4.503
 2576WAT     H2 7751   4.646   4.956   4.390
 2577WAT      O 7752   3.969   3.515   3.759
 2577WAT     H1 7753   3.956   3.514   3.854
 2577WAT     H2 7754   3.887   3.549   3.724
 2578WAT      O 7755   4.737   4.832   4.307
 2578WAT     H1 7756   4.801   4.762   4.318
 2578WAT     H2 7757   4.789   4.910   4.289
 2579WAT      O 7758   5.121   4.860   3.279
 2579WAT     H1 7759   5.099   4.789   3.338
 2579WAT     H2 7760   5.082   4.836   3.195
 2580WAT      O 7761   4.914   4.912   4.627
 2580WAT     H1 7762   4.948   4.971   4.695
 2580WAT     H2 7763   4.822   4.899   4.650
 2581WAT      O 7764   3.699   5.263   3.357
 2581WAT     H1 7765   3.735   5.323   3.291
 2581WAT     H2 7766   3.685   5.318   3.434
 2582WAT      O 7767   3.669   3.691   4.705
 2582WAT     H1 7768   3.598   3.711   4.766
 2582WAT     H2 7769   3.711   3.613   4.743
 2583WAT      O 7770   5.079   4.652   3.445
 2583WAT     H1 7771   5.051   4.698   3.524
 2583WAT     H2 7772   5.159   4.606   3.472
 2584WAT      O 7773   3.698   5.090   4.804
 2584WAT     H1 7774   3.709   4.996   4.790
 2584WAT     H2 7775   3.633   5.116   4.739
 2585WAT      O 7776   4.497   4.917   4.944
 2585WAT     H1 7777   4.465   4.845   4.999
 2585WAT     H2 7778   4.430   4.984   4.951
 2586WAT      O 7779   4.301   5.001   3.438
 2586WAT     H1 7780   4.300   5.075   3.377
 2586WAT     H2 7781   4.209   4.977   3.448
 2587WAT      O 7782   3.861   4.524   3.513
 2587WAT     H1 7783   3.800   4.598   3.514
 2587WAT     H2 7784   3.909   4.533   3.430
 2588WAT      O 7785   4.819   3.940   4.480
 2588WAT     H1 7786   4.855   3.858   4.513
 2588WAT     H2 7787   4.732   3.946   4.522
 2589WAT      O 7788   5.155   3.836   3.561
 2589WAT     H1 7789   5.092   3.846   3.490
 2589WAT     H2 7790   5.106   3.858   3.640
 2590WAT      O 7791   4.600   5.008   3.305
 2590WAT     H1 7792   4.610   4.987   3.212
 2590WAT     H2 7793   4.510   4.982   3.325
 2591WAT      O 7794   4.352   4.064   3.703
 2591WAT     H1 7795   4.281   4.110   3.747
 2591WAT     H2 7796   4.380   3.998   3.766
 2592WAT      O 7797   4.515   4.205   4.503
 2592WAT     H1 7798   4.564   4.253   4.569
 2592WAT     H2 7799   4.529   4.113   4.524
 2593WAT      O 7800   4.755   3.736   3.847
 2593WAT     H1 7801   4.743   3.738   3.752
 2593WAT     H2 7802   4.850   3.741   3.859
 2594WAT      O 7803   4.464   5.260   3.774
 2594WAT     H1 7804   4.489   5.256   3.682
 2594WAT     H2 7805   4.369   5.247   3.773
 2595WAT      O 7806   4.172   3.894   3.440
 2595WAT     H1 7807   4.257   3.938   3.434
 2595WAT     H2 7808   4.136   3.926   3.523
 2596WAT      O 7809   5.235   3.827   4.587
 2596WAT     H1 7810   5.185   3.901   4.621
 2596WAT     H2 7811   5.317   3.866   4.555
 2597WAT      O 7812   5.064   4.352   3.932
 2597WAT     H1 7813   4.970   4.353   3.949
 2597WAT     H2 7814   5.096   4.273   3.976
 2598WAT      O 7815   4.062   4.520   3.288
 2598WAT     H1 7816   4.139   4.509   3.344
 2598WAT     H2 7817   4.070   4.450   3.223
 2599WAT      O 7818   3.932   4.263   3.356
 2599WAT     H1 7819   3.940   4.168   3.367
 2599WAT     H2 7820   4.021   4.296   3.367
 2600WAT      O 7821   5.265   5.069   4.099
 2600WAT     H1 7822   5.277   5.151   4.146
 2600WAT     H2 7823   5.351   5.048   4.064
 2601WAT      O 7824   4.012   5.278   4.066
 2601WAT     H1 7825   4.085   5.223   4.093
 2601WAT     H2 7826   4.050   5.364   4.052
 2602WAT      O 7827   3.700   4.885   3.654
 2602WAT     H1 7828   3.608   4.909   3.653
 2602WAT     H2 7829   3.747   4.967   3.642
 2603WAT      O 7830   3.912   5.196   4.985
 2603WAT     H1 7831   3.993   5.228   5.027
 2603WAT     H2 7832   3.861   5.160   5.057
 2604WAT      O 7833   4.323   5.195   3.249
 2604WAT     H1 7834   4.402   5.224   3.203
 2604WAT     H2 7835   4.271   5.152   3.181
 2605WAT      O 7836   4.796   4.807   4.980
 2605WAT     H1 7837   4.735   4.809   4.906
 2605WAT     H2 7838   4.766   4.734   5.034
 2606WAT      O 7839   4.939   5.180   4.841
 2606WAT     H1 7840   5.034   5.172   4.836
 2606WAT     H2 7841   4.924   5.246   4.908
 2607WAT      O 7842   5.228   5.118   3.391
 2607WAT     H1 7843   5.200   5.077   3.310
 2607WAT     H2 7844   5.208   5.211   3.379
 2608WAT      O 7845   3.684   4.445   4.880
 2608WAT     H1 7846   3.735   4.387   4.937
 2608WAT     H2 7847   3.610   4.474   4.933
 2609WAT      O 7848   4.375   4.717   3.235
 2609WAT     H1 7849   4.364   4.656   3.308
 2609WAT     H2 7850   4.358   4.665   3.157
 2610WAT      O 7851   4.390   4.586   4.833
 2610WAT     H1 7852   4.313   4.643   4.825
 2610WAT     H2 7853   4.408   4.557   4.744
 2611WAT      O 7854   4.699   4.623   3.296
 2611WAT     H1 7855   4.644   4.668   3.360
 2611WAT     H2 7856   4.761   4.573   3.348
 2612WAT      O 7857   5.104   4.759   4.889
 2612WAT     H1 7858   5.178   4.793   4.838
 2612WAT     H2 7859   5.028   4.776   4.833
 2613WAT      O 7860   3.888   4.259   4.969
 2613WAT     H1 7861   3.892   4.230   5.060
 2613WAT     H2 7862   3.973   4.299   4.953
 2614WAT      O 7863   4.265   4.519   3.485
 2614WAT     H1 7864   4.308   4.503   3.569
 2614WAT     H2 7865   4.278   4.438   3.436
 2615WAT      O 7866   4.082   4.117   4.766
 2615WAT     H1 7867   4.029   4.068   4.703
 2615WAT     H2 7868   4.149   4.160   4.712
 2616WAT      O 7869   4.517   4.422   3.210
 2616WAT     H1 7870   4.569   4.350   3.173
 2616WAT     H2 7871   4.581   4.486   3.240
 2617WAT      O 7872   4.971   4.564   4.742
 2617WAT     H1 7873   5.013   4.579   4.827
 2617WAT     H2 7874   4.878   4.577   4.759
 2618WAT      O 7875   5.019   4.298   4.943
 2618WAT     H1 7876   5.077   4.222   4.934
 2618WAT     H2 7877   5.036   4.351   4.865
 2619WAT      O 7878   4.130   3.814   4.774
 2619WAT     H1 7879   4.121   3.752   4.701
 2619WAT     H2 7880   4.072   3.887   4.751
 2620WAT      O 7881   4.407   3.670   4.477
 2620WAT     H1 7882   4.362   3.672   4.393
 2620WAT     H2 7883   4.344   3.630   4.537
 2621WAT      O 7884   4.448   4.559   4.539
 2621WAT     H1 7885   4.490   4.644   4.522
 2621WAT     H2 7886   4.356   4.573   4.516
 2622WAT      O 7887   4.681   4.332   4.678
 2622WAT     H1 7888   4.693   4.273   4.752
 2622WAT     H2 7889   4.767   4.336   4.636
 2623WAT      O 7890   4.915   4.388   4.535
 2623WAT     H1 7891   4.862   4.440   4.475
 2623WAT     H2 7892   4.949   4.451   4.598
 2624WAT      O 7893   4.155   4.127   3.180
 2624WAT     H1 7894   4.135   4.040   3.216
 2624WAT     H2 7895   4.138   4.118   3.086
 2625WAT      O 7896   4.233   5.190   4.651
 2625WAT     H1 7897   4.179   5.262   4.619
 2625WAT     H2 7898   4.258   5.142   4.572
 2626WAT      O 7899   4.358   3.987   4.803
 2626WAT     H1 7900   4.417   3.956   4.872
 2626WAT     H2 7901   4.276   3.939   4.819
 2627WAT      O 7902   4.840   3.948   4.827
 2627WAT     H1 7903   4.771   3.882   4.820
 2627WAT     H2 7904   4.912   3.904   4.871
 2628WAT      O 7905   4.903   3.608   3.433
 2628WAT     H1 7906   4.931   3.523   3.468
 2628WAT     H2 7907   4.826   3.631   3.484
 2629WAT      O 7908   4.518   5.313   4.677
 2629WAT     H1 7909   4.511   5.404   4.707
 2629WAT     H2 7910   4.428   5.281   4.674
 2630WAT      O 7911   4.357   3.731   3.277
 2630WAT     H1 7912   4.322   3.663   3.219
 2630WAT     H2 7913   4.377   3.685   3.359
 2631WAT      O 7914   4.573   5.230   3.439
 2631WAT     H1 7915   4.663   5.264   3.441
 2631WAT     H2 7916   4.576   5.158   3.376
 2632WAT      O 7917   3.937   4.767   3.262
 2632WAT     H1 7918   3.981   4.821   3.327
 2632WAT     H2 7919   3.986   4.685   3.263
 2633WAT      O 7920   3.659   5.046   4.007
 2633WAT     H1 7921   3.692   4.959   3.984
 2633WAT     H2 7922   3.702   5.067   4.090
 2634WAT      O 7923   4.118   4.879   3.773
 2634WAT     H1 7924   4.088   4.867   3.863
 2634WAT     H2 7925   4.108   4.793   3.732
 2635WAT      O 7926   3.708   5.133   4.281
 2635WAT     H1 7927   3.664   5.151   4.364
 2635WAT     H2 7928   3.764   5.208   4.267
 2636WAT      O 7929   5.271   5.083   4.710
 2636WAT     H1 7930   5.211   5.089   4.635
 2636WAT     H2 7931   5.284   4.989   4.723
 2637WAT      O 7932   5.395   4.857   3.243
 2637WAT     H1 7933   5.312   4.864   3.290
 2637WAT     H2 7934   5.413   4.946   3.213
 2638WAT      O 7935   5.341   4.532   3.494
 2638WAT     H1 7936   5.417   4.589   3.504
 2638WAT     H2 7937   5.342   4.475   3.571
 2639WAT      O 7938   3.691   4.384   3.917
 2639WAT     H1 7939   3.625   4.357   3.852
 2639WAT     H2 7940   3.775   4.373   3.872
 2640WAT      O 7941   5.441   4.617   3.978
 2640WAT     H1 7942   5.478   4.539   3.937
 2640WAT     H2 7943   5.505   4.686   3.960
 2641WAT      O 7944   5.140   4.755   4.519
 2641WAT     H1 7945   5.058   4.798   4.546
 2641WAT     H2 7946   5.180   4.817   4.458
 2642WAT      O 7947   5.346   4.561   3.209
 2642WAT     H1 7948   5.373   4.652   3.197
 2642WAT     H2 7949   5.327   4.555   3.303
 2643WAT      O 7950   4.986   3.863   3.339
 2643WAT     H1 7951   5.027   3.845   3.255
 2643WAT     H2 7952   4.955   3.778   3.370
 2644WAT      O 7953   5.336   4.355   3.709
 2644WAT     H1 7954   5.298   4.278   3.665
 2644WAT     H2 7955   5.263   4.393   3.757
 2645WAT      O 7956   3.795   4.422   4.371
 2645WAT     H1 7957   3.831   4.414   4.459
 2645WAT     H2 7958   3.738   4.346   4.361
 2646WAT      O 7959   5.275   4.269   4.672
 2646WAT     H1 7960   5.251   4.246   4.582
 2646WAT     H2 7961   5.301   4.361   4.668
 2647WAT      O 7962   3.750   4.114   4.761
 2647WAT     H1 7963   3.660   4.110   4.795
 2647WAT     H2 7964   3.804   4.133   4.838
 2648WAT      O 7965   5.118   3.792   4.950
 2648WAT     H1 7966   5.206   3.793   4.988
 2648WAT     H2 7967   5.120   3.718   4.889
 2649WAT      O 7968   3.612   4.105   3.511
 2649WAT     H1 7969   3.522   4.131   3.494
 2649WAT     H2 7970   3.661   4.132   3.433
 2650WAT      O 7971   5.263   4.177   4.039
 2650WAT     H1 7972   5.315   4.128   3.976
 2650WAT     H2 7973   5.322   4.191   4.113
 2651WAT      O 7974   5.281   4.186   4.391
 2651WAT     H1 7975   5.186   4.182   4.402
 2651WAT     H2 7976   5.299   4.277   4.367
 2652WAT      O 7977   5.212   4.103   3.633
 2652WAT     H1 7978   5.262   4.080   3.711
 2652WAT     H2 7979   5.192   4.019   3.591
 2653WAT      O 7980   3.800   3.541   4.196
 2653WAT     H1 7981   3.865   3.486   4.152
 2653WAT     H2 7982   3.842   3.566   4.278
 2654WAT      O 7983   5.355   3.966   3.886
 2654WAT     H1 7984   5.344   3.951   3.980
 2654WAT     H2 7985   5.431   3.914   3.862
 2655WAT      O 7986   5.190   3.560   4.532
 2655WAT     H1 7987   5.253   3.622   4.568
 2655WAT     H2 7988   5.204   3.564   4.437
 2656WAT      O 7989   5.444   3.750   3.210
 2656WAT     H1 7990   5.536   3.736   3.189
 2656WAT     H2 7991   5.442   3.757   3.305
 2657WAT      O 7992   5.451   3.827   3.473
 2657WAT     H1 7993   5.372   3.820   3.526
 2657WAT     H2 7994   5.472   3.920   3.472
 2658WAT      O 7995   5.145   5.231   3.872
 2658WAT     H1 7996   5.205   5.198   3.804
 2658WAT     H2 7997   5.171   5.183   3.951
 2659WAT      O 7998   3.775   3.557   4.470
 2659WAT     H1 7999   3.741   3.602   4.547
 2659WAT     H2 8000   3.742   3.467   4.479
 2660WAT      O 8001   3.936   4.874   4.887
 2660WAT     H1 8002   3.932   4.837   4.975
 2660WAT     H2 8003   3.949   4.968   4.901
 2661WAT      O 8004   4.306   5.029   4.447
 2661WAT     H1 8005   4.282   5.056   4.358
 2661WAT     H2 8006   4.400   5.046   4.453
 2662WAT      O 8007   4.527   3.676   4.823
 2662WAT     H1 8008   4.521   3.735   4.898
 2662WAT     H2 8009   4.621   3.665   4.808
 2663WAT      O 8010   4.790   3.641   4.787
 2663WAT     H1 8011   4.852   3.673   4.720
 2663WAT     H2 8012   4.845   3.593   4.849
 2664WAT      O 8013   5.432   5.231   4.527
 2664WAT     H1 8014   5.383   5.271   4.455
 2664WAT     H2 8015   5.371   5.169   4.567
 2665WAT      O 8016   3.843   3.509   4.798
 2665WAT     H1 8017   3.897   3.491   4.722
 2665WAT     H2 8018   3.849   3.430   4.852
 2666WAT      O 8019   3.920   5.168   4.599
 2666WAT     H1 8020   3.861   5.155   4.673
 2666WAT     H2 8021   3.919   5.085   4.552
 2667WAT      O 8022   4.864   3.498   4.419
 2667WAT     H1 8023   4.777   3.531   4.399
 2667WAT     H2 8024   4.854   3.450   4.502
 2668WAT      O 8025   4.955   3.718   4.558
 2668WAT     H1 8026   4.922   3.637   4.520
 2668WAT     H2 8027   5.050   3.714   4.545
 2669WAT      O 8028   5.201   5.296   4.255
 2669WAT     H1 8029   5.155   5.371   4.218
 2669WAT     H2 8030   5.138   5.224   4.249
 2670WAT      O 8031   3.883   4.905   4.494
 2670WAT     H1 8032   3.810   4.843   4.487
 2670WAT     H2 8033   3.889   4.944   4.407
 2671WAT      O 8034   4.243   5.126   4.173
 2671WAT     H1 8035   4.295   5.065   4.120
 2671WAT     H2 8036   4.308   5.177   4.222
 2672WAT      O 8037   4.517   5.216   4.255
 2672WAT     H1 8038   4.546   5.190   4.168
 2672WAT     H2 8039   4.569   5.160   4.314
 2673WAT      O 8040   4.639   3.589   4.313
 2673WAT     H1 8041   4.561   3.637   4.341
 2673WAT     H2 8042   4.610   3.499   4.302
 2674WAT      O 8043   5.094   3.660   4.118
 2674WAT     H1 8044   5.138   3.654   4.033
 2674WAT     H2 8045   5.067   3.751   4.125
 2675WAT      O 8046   5.281   3.623   3.919
 2675WAT     H1 8047   5.275   3.528   3.904
 2675WAT     H2 8048   5.359   3.634   3.973
 2676WAT      O 8049   3.711   5.237   3.815
 2676WAT     H1 8050   3.695   5.173   3.885
 2676WAT     H2 8051   3.625   5.257   3.780
 2677WAT      O 8052   3.774   3.620   3.565
 2677WAT     H1 8053   3.849   3.631   3.508
 2677WAT     H2 8054   3.727   3.704   3.561
 2678WAT      O 8055   4.428   3.831   3.864
 2678WAT     H1 8056   4.346   3.794   3.830
 2678WAT     H2 8057   4.478   3.756   3.895
 2679WAT      O 8058   4.878   3.498   3.988
 2679WAT     H1 8059   4.938   3.555   4.036
 2679WAT     H2 8060   4.804   3.554   3.966
 2680WAT      O 8061   5.192   3.538   3.516
 2680WAT     H1 8062   5.212   3.628   3.542
 2680WAT     H2 8063   5.114   3.515   3.565
 2681WAT      O 8064   3.872   5.106   3.559
 2681WAT     H1 8065   3.819   5.144   3.489
 2681WAT     H2 8066   3.864   5.169   3.632
 2682WAT      O 8067   4.230   3.646   3.725
 2682WAT     H1 8068   4.167   3.576   3.741
 2682WAT     H2 8069   4.176   3.722   3.703
 2683WAT      O 8070   4.524   5.308   4.992
 2683WAT     H1 8071   4.617   5.284   4.996
 2683WAT     H2 8072   4.523   5.390   4.944
 2684WAT      O 8073   5.348   5.262   3.692
 2684WAT     H1 8074   5.365   5.193   3.627
 2684WAT     H2 8075   5.278   5.314   3.652
 2685WAT      O 8076   4.243   3.574   4.968
 2685WAT     H1 8077   4.215   3.624   4.892
 2685WAT     H2 8078   4.281   3.494   4.932
 2686WAT      O 8079   4.132   5.301   3.447
 2686WAT     H1 8080   4.205   5.272   3.392
 2686WAT     H2 8081   4.158   5.277   3.536
 2687WAT      O 8082   4.048   4.913   3.447
 2687WAT     H1 8083   3.985   4.959   3.502
 2687WAT     H2 8084   4.060   4.828   3.491
 2688WAT      O 8085   4.903   3.516   5.026
 2688WAT     H1 8086   4.892   3.548   5.116
 2688WAT     H2 8087   4.985   3.556   4.996
 2689WAT      O 8088   5.181   5.230   4.974
 2689WAT     H1 8089   5.260   5.181   4.954
 2689WAT     H2 8090   5.210   5.298   5.035
 2690WAT      O 8091   4.794   4.318   2.062
 2690WAT     H1 8092   4.785   4.226   2.035
 2690WAT     H2 8093   4.752   4.367   1.992
 2691WAT      O 8094   4.607   4.495   2.251
 2691WAT     H1 8095   4.529   4.447   2.280
 2691WAT     H2 8096   4.672   4.427   2.233
 2692WAT      O 8097   4.008   4.527   2.338
 2692WAT     H1 8098   3.925   4.501   2.378
 2692WAT     H2 8099   4.069   4.534   2.412
 2693WAT      O 8100   5.009   4.936   2.129
 2693WAT     H1 8101   4.963   4.859   2.161
 2693WAT     H2 8102   5.090   4.939   2.179
 2694WAT      O 8103   4.006   4.930   2.358
 2694WAT     H1 8104   4.037   4.841   2.340
 2694WAT     H2 8105   4.081   4.986   2.335
 2695WAT      O 8106   3.849   4.023   1.717
 2695WAT     H1 8107   3.760   4.057   1.707
 2695WAT     H2 8108   3.878   4.003   1.628
 2696WAT      O 8109   3.646   4.283   2.305
 2696WAT     H1 8110   3.703   4.206   2.305
 2696WAT     H2 8111   3.646   4.313   2.214
 2697WAT      O 8112   4.631   5.165   2.091
 2697WAT     H1 8113   4.570   5.210   2.034
 2697WAT     H2 8114   4.717   5.180   2.050
 2698WAT      O 8115   4.551   4.763   2.251
 2698WAT     H1 8116   4.544   4.669   2.235
 2698WAT     H2 8117   4.627   4.772   2.308
 2699WAT      O 8118   3.770   3.823   2.484
 2699WAT     H1 8119   3.752   3.734   2.512
 2699WAT     H2 8120   3.730   3.878   2.551
 2700WAT      O 8121   4.654   4.044   2.274
 2700WAT     H1 8122   4.691   3.956   2.263
 2700WAT     H2 8123   4.644   4.077   2.185
 2701WAT      O 8124   4.067   3.881   1.820
 2701WAT     H1 8125   4.078   3.971   1.851
 2701WAT     H2 8126   3.976   3.876   1.791
 2702WAT      O 8127   5.032   3.793   1.967
 2702WAT     H1 8128   5.114   3.744   1.971
 2702WAT     H2 8129   5.035   3.852   2.043
 2703WAT      O 8130   3.832   4.073   2.345
 2703WAT     H1 8131   3.900   4.099   2.407
 2703WAT     H2 8132   3.800   3.989   2.378
 2704WAT      O 8133   4.251   4.178   2.253
 2704WAT     H1 8134   4.302   4.228   2.317
 2704WAT     H2 8135   4.304   4.100   2.236
 2705WAT      O 8136   5.461   3.995   2.624
 2705WAT     H1 8137   5.391   4.034   2.572
 2705WAT     H2 8138   5.488   4.064   2.684
 2706WAT      O 8139   4.079   3.642   2.680
 2706WAT     H1 8140   4.080   3.693   2.599
 2706WAT     H2 8141   3.996   3.594   2.678
 2707WAT      O 8142   4.718   4.653   1.830
 2707WAT     H1 8143   4.656   4.699   1.774
 2707WAT     H2 8144   4.769   4.722   1.872
 2708WAT      O 8145   4.204   4.606   2.498
 2708WAT     H1 8146   4.171   4.668   2.562
 2708WAT     H2 8147   4.222   4.658   2.420
 2709WAT      O 8148   5.056   3.987   2.245
 2709WAT     H1 8149   4.985   4.016   2.303
 2709WAT     H2 8150   5.092   4.068   2.208
 2710WAT      O 8151   4.047   3.813   2.481
 2710WAT     H1 8152   4.082   3.897   2.451
 2710WAT     H2 8153   3.954   3.828   2.492
 2711WAT      O 8154   4.126   4.803   2.679
 2711WAT     H1 8155   4.187   4.870   2.651
 2711WAT     H2 8156   4.039   4.843   2.670
 2712WAT      O 8157   3.655   4.722   1.567
 2712WAT     H1 8158   3.617   4.770   1.494
 2712WAT     H2 8159   3.681   4.789   1.630
 2713WAT      O 8160   5.217   4.949   2.471
 2713WAT     H1 8161   5.149   5.016   2.470
 2713WAT     H2 8162   5.271   4.969   2.394
 2714WAT      O 8163   5.363   3.932   2.284
 2714WAT     H1 8164   5.268   3.935   2.297
 2714WAT     H2 8165   5.395   4.013   2.322
 2715WAT      O 8166   4.416   3.562   2.113
 2715WAT     H1 8167   4.447   3.506   2.042
 2715WAT     H2 8168   4.323   3.575   2.095
 2716WAT      O 8169   4.971   5.133   2.342
 2716WAT     H1 8170   4.972   5.093   2.255
 2716WAT     H2 8171   4.916   5.211   2.332
 2717WAT      O 8172   5.100   4.806   1.851
 2717WAT     H1 8173   5.089   4.711   1.864
 2717WAT     H2 8174   5.100   4.842   1.940
 2718WAT      O 8175   4.911   4.624   2.475
 2718WAT     H1 8176   4.952   4.602   2.392
 2718WAT     H2 8177   4.983   4.649   2.532
 2719WAT      O 8178   4.655   4.368   1.787
 2719WAT     H1 8179   4.562   4.362   1.810
 2719WAT     H2 8180   4.670   4.462   1.775
 2720WAT      O 8181   4.653   3.995   1.486
 2720WAT     H1 8182   4.559   4.011   1.495
 2720WAT     H2 8183   4.685   4.067   1.432
 2721WAT      O 8184   5.305   4.464   2.484
 2721WAT     H1 8185   5.223   4.470   2.437
 2721WAT     H2 8186   5.365   4.522   2.437
 2722WAT      O 8187   5.058   4.524   1.837
 2722WAT     H1 8188   4.996   4.491   1.772
 2722WAT     H2 8189   5.056   4.460   1.908
 2723WAT      O 8190   5.002   4.142   2.579
 2723WAT     H1 8191   4.961   4.225   2.604
 2723WAT     H2 8192   4.929   4.084   2.560
 2724WAT      O 8193   4.215   4.421   2.065
 2724WAT     H1 8194   4.175   4.350   2.015
 2724WAT     H2 8195   4.224   4.386   2.154
 2725WAT      O 8196   4.262   4.789   2.281
 2725WAT     H1 8197   4.232   4.729   2.213
 2725WAT     H2 8198   4.357   4.793   2.270
 2726WAT      O 8199   4.086   4.098   2.443
 2726WAT     H1 8200   4.142   4.109   2.365
 2726WAT     H2 8201   4.138   4.136   2.514
 2727WAT      O 8202   5.071   5.147   2.648
 2727WAT     H1 8203   5.023   5.228   2.628
 2727WAT     H2 8204   5.002   5.082   2.663
 2728WAT      O 8205   4.171   4.763   2.946
 2728WAT     H1 8206   4.081   4.786   2.971
 2728WAT     H2 8207   4.174   4.776   2.852
 2729WAT      O 8208   4.875   4.448   1.538
 2729WAT     H1 8209   4.919   4.364   1.523
 2729WAT     H2 8210   4.946   4.512   1.546
 2730WAT      O 8211   4.054   4.450   2.804
 2730WAT     H1 8212   4.040   4.538   2.841
 2730WAT     H2 8213   3.966   4.416   2.789
 2731WAT      O 8214   4.686   4.942   1.935
 2731WAT     H1 8215   4.730   5.016   1.893
 2731WAT     H2 8216   4.680   4.966   2.027
 2732WAT      O 8217   4.234   5.045   3.025
 2732WAT     H1 8218   4.231   5.085   2.938
 2732WAT     H2 8219   4.217   4.952   3.009
 2733WAT      O 8220   5.233   3.574   1.369
 2733WAT     H1 8221   5.202   3.583   1.459
 2733WAT     H2 8222   5.309   3.631   1.364
 2734WAT      O 8223   3.885   4.310   1.815
 2734WAT     H1 8224   3.873   4.383   1.754
 2734WAT     H2 8225   3.854   4.233   1.767
 2735WAT      O 8226   5.429   5.123   3.154
 2735WAT     H1 8227   5.476   5.171   3.222
 2735WAT     H2 8228   5.491   5.116   3.082
 2736WAT      O 8229   3.649   4.627   2.396
 2736WAT     H1 8230   3.657   4.641   2.301
 2736WAT     H2 8231   3.710   4.557   2.415
 2737WAT      O 8232   3.774   4.797   2.037
 2737WAT     H1 8233   3.733   4.812   1.951
 2737WAT     H2 8234   3.863   4.769   2.016
 2738WAT      O 8235   5.369   4.842   2.870
 2738WAT     H1 8236   5.382   4.818   2.779
 2738WAT     H2 8237   5.373   4.759   2.918
 2739WAT      O 8238   4.755   5.212   2.727
 2739WAT     H1 8239   4.807   5.203   2.808
 2739WAT     H2 8240   4.671   5.247   2.757
 2740WAT      O 8241   4.953   5.241   1.670
 2740WAT     H1 8242   4.937   5.212   1.760
 2740WAT     H2 8243   4.936   5.163   1.617
 2741WAT      O 8244   4.201   5.219   1.848
 2741WAT     H1 8245   4.183   5.127   1.827
 2741WAT     H2 8246   4.115   5.255   1.872
 2742WAT      O 8247   4.923   4.992   1.526
 2742WAT     H1 8248   4.854   4.992   1.460
 2742WAT     H2 8249   4.997   4.949   1.483
 2743WAT      O 8250   4.880   5.154   1.934
 2743WAT     H1 8251   4.925   5.076   1.965
 2743WAT     H2 8252   4.914   5.225   1.988
 2744WAT      O 8253   5.354   4.047   2.967
 2744WAT     H1 8254   5.293   4.098   2.914
 2744WAT     H2 8255   5.322   3.957   2.961
 2745WAT      O 8256   3.655   4.732   2.650
 2745WAT     H1 8257   3.671   4.685   2.568
 2745WAT     H2 8258   3.701   4.681   2.716
 2746WAT      O 8259   4.132   3.645   2.153
 2746WAT     H1 8260   4.088   3.723   2.120
 2746WAT     H2 8261   4.188   3.677   2.224
 2747WAT      O 8262   4.561   3.931   2.714
 2747WAT     H1 8263   4.514   3.952   2.795
 2747WAT     H2 8264   4.520   3.850   2.683
 2748WAT      O 8265   5.061   4.053   2.827
 2748WAT     H1 8266   4.976   4.023   2.859
 2748WAT     H2 8267   5.045   4.078   2.735
 2749WAT      O 8268   4.770   4.203   3.037
 2749WAT     H1 8269   4.803   4.120   3.003
 2749WAT     H2 8270   4.849   4.256   3.051
 2750WAT      O 8271   4.443   3.607   1.641
 2750WAT     H1 8272   4.381   3.606   1.714
 2750WAT     H2 8273   4.435   3.520   1.602
 2751WAT      O 8274   4.336   3.699   2.339
 2751WAT     H1 8275   4.365   3.790   2.331
 2751WAT     H2 8276   4.390   3.650   2.278
 2752WAT      O 8277   4.111   4.157   1.926
 2752WAT     H1 8278   4.088   4.135   2.017
 2752WAT     H2 8279   4.033   4.200   1.892
 2753WAT      O 8280   4.834   4.158   1.786
 2753WAT     H1 8281   4.774   4.230   1.768
 2753WAT     H2 8282   4.889   4.151   1.708
 2754WAT      O 8283   4.355   4.247   2.993
 2754WAT     H1 8284   4.345   4.153   2.978
 2754WAT     H2 8285   4.439   4.269   2.953
 2755WAT      O 8286   4.695   4.021   1.989
 2755WAT     H1 8287   4.734   4.053   1.908
 2755WAT     H2 8288   4.731   3.933   2.000
 2756WAT      O 8289   3.868   3.888   2.808
 2756WAT     H1 8290   3.829   3.973   2.829
 2756WAT     H2 8291   3.799   3.824   2.827
 2757WAT      O 8292   4.526   3.896   3.115
 2757WAT     H1 8293   4.457   3.877   3.178
 2757WAT     H2 8294   4.600   3.925   3.168
 2758WAT      O 8295   3.598   3.680   2.211
 2758WAT     H1 8296   3.569   3.737   2.283
 2758WAT     H2 8297   3.673   3.632   2.248
 2759WAT      O 8298   3.617   4.074   1.332
 2759WAT     H1 8299   3.609   4.169   1.346
 2759WAT     H2 8300   3.582   4.060   1.244
 2760WAT      O 8301   4.753   4.280   2.399
 2760WAT     H1 8302   4.680   4.331   2.433
 2760WAT     H2 8303   4.713   4.199   2.368
 2761WAT      O 8304   4.397   3.948   2.239
 2761WAT     H1 8305   4.397   3.904   2.154
 2761WAT     H2 8306   4.486   3.980   2.250
 2762WAT      O 8307   3.982   3.936   2.135
 2762WAT     H1 8308   3.948   3.984   2.211
 2762WAT     H2 8309   3.906   3.891   2.099
 2763WAT      O 8310   4.403   4.048   1.538
 2763WAT     H1 8311   4.415   4.044   1.633
 2763WAT     H2 8312   4.365   4.134   1.523
 2764WAT      O 8313   4.799   3.826   2.340
 2764WAT     H1 8314   4.801   3.871   2.424
 2764WAT     H2 8315   4.775   3.736   2.361
 2765WAT      O 8316   4.304   4.279   1.478
 2765WAT     H1 8317   4.248   4.234   1.415
 2765WAT     H2 8318   4.375   4.315   1.425
 2766WAT      O 8319   5.142   3.567   2.924
 2766WAT     H1 8320   5.175   3.494   2.976
 2766WAT     H2 8321   5.146   3.535   2.833
 2767WAT      O 8322   3.812   4.669   2.866
 2767WAT     H1 8323   3.774   4.605   2.925
 2767WAT     H2 8324   3.843   4.739   2.923
 2768WAT      O 8325   4.427   4.354   2.414
 2768WAT     H1 8326   4.464   4.306   2.488
 2768WAT     H2 8327   4.408   4.441   2.448
 2769WAT      O 8328   3.713   3.828   2.027
 2769WAT     H1 8329   3.685   3.792   2.110
 2769WAT     H2 8330   3.707   3.755   1.965
 2770WAT      O 8331   4.206   4.258   2.646
 2770WAT     H1 8332   4.176   4.346   2.668
 2770WAT     H2 8333   4.301   4.264   2.649
 2771WAT      O 8334   4.059   4.679   1.705
 2771WAT     H1 8335   3.981   4.625   1.689
 2771WAT     H2 8336   4.132   4.627   1.671
 2772WAT      O 8337   5.135   4.578   2.284
 2772WAT     H1 8338   5.207   4.628   2.245
 2772WAT     H2 8339   5.115   4.510   2.220
 2773WAT      O 8340   4.681   3.718   1.699
 2773WAT     H1 8341   4.599   3.668   1.691
 2773WAT     H2 8342   4.661   3.802   1.657
 2774WAT      O 8343   4.673   4.585   2.873
 2774WAT     H1 8344   4.666   4.493   2.848
 2774WAT     H2 8345   4.610   4.595   2.945
 2775WAT      O 8346   4.952   4.155   1.528
 2775WAT     H1 8347   5.041   4.186   1.511
 2775WAT     H2 8348   4.949   4.067   1.489
 2776WAT      O 8349   4.063   4.645   2.069
 2776WAT     H1 8350   4.115   4.565   2.064
 2776WAT     H2 8351   4.018   4.639   2.153
 2777WAT      O 8352   4.552   4.772   1.596
 2777WAT     H1 8353   4.586   4.846   1.547
 2777WAT     H2 8354   4.469   4.803   1.633
 2778WAT      O 8355   3.812   4.342   2.760
 2778WAT     H1 8356   3.776   4.408   2.819
 2778WAT     H2 8357   3.782   4.259   2.797
 2779WAT      O 8358   4.132   4.388   3.049
 2779WAT     H1 8359   4.102   4.402   2.959
 2779WAT     H2 8360   4.209   4.332   3.039
 2780WAT      O 8361   4.666   4.867   2.848
 2780WAT     H1 8362   4.667   4.774   2.826
 2780WAT     H2 8363   4.595   4.876   2.912
 2781WAT      O 8364   5.179   4.286   1.475
 2781WAT     H1 8365   5.171   4.329   1.390
 2781WAT     H2 8366   5.251   4.332   1.518
 2782WAT      O 8367   5.287   4.532   2.783
 2782WAT     H1 8368   5.215   4.591   2.763
 2782WAT     H2 8369   5.340   4.531   2.703
 2783WAT      O 8370   5.282   4.971   1.748
 2783WAT     H1 8371   5.218   4.906   1.775
 2783WAT     H2 8372   5.244   5.012   1.670
 2784WAT      O 8373   4.840   4.704   2.133
 2784WAT     H1 8374   4.875   4.644   2.067
 2784WAT     H2 8375   4.752   4.672   2.150
 2785WAT      O 8376   4.449   4.780   1.873
 2785WAT     H1 8377   4.518   4.835   1.912
 2785WAT     H2 8378   4.370   4.835   1.877
 2786WAT      O 8379   3.663   4.342   1.423
 2786WAT     H1 8380   3.750   4.370   1.451
 2786WAT     H2 8381   3.614   4.423   1.411
 2787WAT      O 8382   4.379   4.481   1.835
 2787WAT     H1 8383   4.425   4.562   1.857
 2787WAT     H2 8384   4.344   4.449   1.918
 2788WAT      O 8385   4.609   5.032   2.558
 2788WAT     H1 8386   4.674   5.052   2.625
 2788WAT     H2 8387   4.646   4.956   2.512
 2789WAT      O 8388   3.969   3.515   1.882
 2789WAT     H1 8389   3.956   3.514   1.977
 2789WAT     H2 8390   3.887   3.549   1.847
 2790WAT      O 8391   4.737   4.832   2.429
 2790WAT     H1 8392   4.801   4.762   2.441
 2790WAT     H2 8393   4.789   4.910   2.411
 2791WAT      O 8394   5.121   4.860   1.402
 2791WAT     H1 8395   5.099   4.789   1.461
 2791WAT     H2 8396   5.082   4.836   1.318
 2792WAT      O 8397   4.914   4.912   2.750
 2792WAT     H1 8398   4.948   4.971   2.818
 2792WAT     H2 8399   4.822   4.899   2.773
 2793WAT      O 8400   3.699   5.263   1.479
 2793WAT     H1 8401   3.735   5.323   1.414
 2793WAT     H2 8402   3.685   5.318   1.557
 2794WAT      O 8403   5.079   4.652   1.568
 2794WAT     H1 8404   5.051   4.698   1.647
 2794WAT     H2 8405   5.159   4.606   1.595
 2795WAT      O 8406   3.698   5.090   2.927
 2795WAT     H1 8407   3.709   4.996   2.913
 2795WAT     H2 8408   3.633   5.116   2.862
 2796WAT      O 8409   4.497   4.917   3.067
 2796WAT     H1 8410   4.465   4.845   3.121
 2796WAT     H2 8411   4.430   4.984   3.074
 2797WAT      O 8412   4.301   5.001   1.561
 2797WAT     H1 8413   4.300   5.075   1.499
 2797WAT     H2 8414   4.209   4.977   1.570
 2798WAT      O 8415   3.861   4.524   1.635
 2798WAT     H1 8416   3.800   4.598   1.636
 2798WAT     H2 8417   3.909   4.533   1.553
 2799WAT      O 8418   4.819   3.940   2.603
 2799WAT     H1 8419   4.855   3.858   2.636
 2799WAT     H2 8420   4.732   3.946   2.645
 2800WAT      O 8421   5.155   3.836   1.684
 2800WAT     H1 8422   5.092   3.846   1.612
 2800WAT     H2 8423   5.106   3.858   1.763
 2801WAT      O 8424   4.600   5.008   1.427
 2801WAT     H1 8425   4.610   4.987   1.334
 2801WAT     H2 8426   4.510   4.982   1.448
 2802WAT      O 8427   4.352   4.064   1.825
 2802WAT     H1 8428   4.281   4.110   1.870
 2802WAT     H2 8429   4.380   3.998   1.889
 2803WAT      O 8430   4.515   4.205   2.625
 2803WAT     H1 8431   4.564   4.253   2.692
 2803WAT     H2 8432   4.529   4.113   2.646
 2804WAT      O 8433   4.755   3.736   1.969
 2804WAT     H1 8434   4.743   3.738   1.874
 2804WAT     H2 8435   4.850   3.741   1.981
 2805WAT      O 8436   4.464   5.260   1.897
 2805WAT     H1 8437   4.489   5.256   1.804
 2805WAT     H2 8438   4.369   5.247   1.896
 2806WAT      O 8439   4.172   3.894   1.563
 2806WAT     H1 8440   4.257   3.938   1.556
 2806WAT     H2 8441   4.136   3.926   1.646
 2807WAT      O 8442   5.235   3.827   2.710
 2807WAT     H1 8443   5.185   3.901   2.744
 2807WAT     H2 8444   5.317   3.866   2.678
 2808WAT      O 8445   5.064   4.352   2.054
 2808WAT     H1 8446   4.970   4.353   2.072
 2808WAT     H2 8447   5.096   4.273   2.099
 2809WAT      O 8448   4.062   4.520   1.410
 2809WAT     H1 8449   4.139   4.509   1.467
 2809WAT     H2 8450   4.070   4.450   1.345
 2810WAT      O 8451   3.932   4.263   1.479
 2810WAT     H1 8452   3.940   4.168   1.490
 2810WAT     H2 8453   4.021   4.296   1.489
 2811WAT      O 8454   5.265   5.069   2.222
 2811WAT     H1 8455   5.277   5.151   2.269
 2811WAT     H2 8456   5.351   5.048   2.187
 2812WAT      O 8457   4.012   5.278   2.189
 2812WAT     H1 8458   4.085   5.223   2.216
 2812WAT     H2 8459   4.050   5.364   2.175
 2813WAT      O 8460   3.700   4.885   1.776
 2813WAT     H1 8461   3.608   4.909   1.775
 2813WAT     H2 8462   3.747   4.967   1.764
 2814WAT      O 8463   3.912   5.196   3.108
 2814WAT     H1 8464   3.993   5.228   3.149
 2814WAT     H2 8465   3.861   5.160   3.180
 2815WAT      O 8466   4.323   5.195   1.371
 2815WAT     H1 8467   4.402   5.224   1.326
 2815WAT     H2 8468   4.271   5.152   1.303
 2816WAT      O 8469   4.796   4.807   3.103
 2816WAT     H1 8470   4.735   4.809   3.029
 2816WAT     H2 8471   4.766   4.734   3.156
 2817WAT      O 8472   4.939   5.180   2.964
 2817WAT     H1 8473   5.034   5.172   2.959
 2817WAT     H2 8474   4.924   5.246   3.031
 2818WAT      O 8475   5.228   5.118   1.514
 2818WAT     H1 8476   5.200   5.077   1.432
 2818WAT     H2 8477   5.208   5.211   1.502
 2819WAT      O 8478   3.684   4.445   3.002
 2819WAT     H1 8479   3.735   4.387   3.059
 2819WAT     H2 8480   3.610   4.474   3.056
 2820WAT      O 8481   4.375   4.717   1.358
 2820WAT     H1 8482   4.364   4.656   1.430
 2820WAT     H2 8483   4.358   4.665   1.279
 2821WAT      O 8484   4.390   4.586   2.956
 2821WAT     H1 8485   4.313   4.643   2.947
 2821WAT     H2 8486   4.408   4.557   2.866
 2822WAT      O 8487   4.699   4.623   1.418
 2822WAT     H1 8488   4.644   4.668   1.483
 2822WAT     H2 8489   4.761   4.573   1.470
 2823WAT      O 8490   5.104   4.759   3.011
 2823WAT     H1 8491   5.178   4.793   2.961
 2823WAT     H2 8492   5.028   4.776   2.956
 2824WAT      O 8493   3.888   4.259   3.092
 2824WAT     H1 8494   3.892   4.230   3.183
 2824WAT     H2 8495   3.973   4.299   3.076
 2825WAT      O 8496   4.265   4.519   1.608
 2825WAT     H1 8497   4.308   4.503   1.692
 2825WAT     H2 8498   4.278   4.438   1.558
 2826WAT      O 8499   4.082   4.117   2.888
 2826WAT     H1 8500   4.029   4.068   2.826
 2826WAT     H2 8501   4.149   4.160   2.835
 2827WAT      O 8502   4.517   4.422   1.333
 2827WAT     H1 8503   4.569   4.350   1.296
 2827WAT     H2 8504   4.581   4.486   1.363
 2828WAT      O 8505   4.971   4.564   2.865
 2828WAT     H1 8506   5.013   4.579   2.950
 2828WAT     H2 8507   4.878   4.577   2.881
 2829WAT      O 8508   5.019   4.298   3.065
 2829WAT     H1 8509   5.077   4.222   3.056
 2829WAT     H2 8510   5.036   4.351   2.988
 2830WAT      O 8511   4.130   3.814   2.896
 2830WAT     H1 8512   4.121   3.752   2.824
 2830WAT     H2 8513   4.072   3.887   2.874
 2831WAT      O 8514   4.407   3.670   2.600
 2831WAT     H1 8515   4.362   3.672   2.515
 2831WAT     H2 8516   4.344   3.630   2.659
 2832WAT      O 8517   4.448   4.559   2.662
 2832WAT     H1 8518   4.490   4.644   2.645
 2832WAT     H2 8519   4.356   4.573   2.639
 2833WAT      O 8520   4.681   4.332   2.800
 2833WAT     H1 8521   4.693   4.273   2.874
 2833WAT     H2 8522   4.767   4.336   2.758
 2834WAT      O 8523   4.915   4.388   2.658
 2834WAT     H1 8524   4.862   4.440   2.597
 2834WAT     H2 8525   4.949   4.451   2.721
 2835WAT      O 8526   4.155   4.127   1.302
 2835WAT     H1 8527   4.135   4.040   1.338
 2835WAT     H2 8528   4.138   4.118   1.209
 2836WAT      O 8529   4.233   5.190   2.773
 2836WAT     H1 8530   4.179   5.262   2.741
 2836WAT     H2 8531   4.258   5.142   2.694
 2837WAT      O 8532   4.358   3.987   2.926
 2837WAT     H1 8533   4.417   3.956   2.995
 2837WAT     H2 8534   4.276   3.939   2.942
 2838WAT      O 8535   4.840   3.948   2.949
 2838WAT     H1 8536   4.771   3.882   2.943
 2838WAT     H2 8537   4.912   3.904   2.994
 2839WAT      O 8538   4.903   3.608   1.555
 2839WAT     H1 8539   4.931   3.523   1.591
 2839WAT     H2 8540   4.826   3.631   1.607
 2840WAT      O 8541   4.035   3.837   1.301
 2840WAT     H1 8542   4.065   3.837   1.210
 2840WAT     H2 8543   4.109   3.802   1.351
 2841WAT      O 8544   4.518   5.313   2.799
 2841WAT     H1 8545   4.511   5.404   2.830
 2841WAT     H2 8546   4.428   5.281   2.796
 2842WAT      O 8547   4.357   3.731   1.400
 2842WAT     H1 8548   4.322   3.663   1.342
 2842WAT     H2 8549   4.377   3.685   1.481
 2843WAT      O 8550   4.573   5.230   1.562
 2843WAT     H1 8551   4.663   5.264   1.564
 2843WAT     H2 8552   4.576   5.158   1.499
 2844WAT      O 8553   3.937   4.767   1.384
 2844WAT     H1 8554   3.981   4.821   1.450
 2844WAT     H2 8555   3.986   4.685   1.385
 2845WAT      O 8556   3.659   5.046   2.130
 2845WAT     H1 8557   3.692   4.959   2.106
 2845WAT     H2 8558   3.702   5.067   2.213
 2846WAT      O 8559   4.118   4.879   1.896
 2846WAT     H1 8560   4.088   4.867   1.986
 2846WAT     H2 8561   4.108   4.793   1.855
 2847WAT      O 8562   3.708   5.133   2.403
 2847WAT     H1 8563   3.664   5.151   2.487
 2847WAT     H2 8564   3.764   5.208   2.389
 2848WAT      O 8565   5.271   5.083   2.832
 2848WAT     H1 8566   5.211   5.089   2.758
 2848WAT     H2 8567   5.284   4.989   2.845
 2849WAT      O 8568   5.395   4.857   1.366
 2849WAT     H1 8569   5.312   4.864   1.413
 2849WAT     H2 8570   5.413   4.946   1.336
 2850WAT      O 8571   5.341   4.532   1.616
 2850WAT     H1 8572   5.417   4.589   1.627
 2850WAT     H2 8573   5.342   4.475   1.693
 2851WAT      O 8574   3.691   4.384   2.039
 2851WAT     H1 8575   3.625   4.357   1.975
 2851WAT     H2 8576   3.775   4.373   1.994
 2852WAT      O 8577   5.441   4.617   2.101
 2852WAT     H1 8578   5.478   4.539   2.060
 2852WAT     H2 8579   5.505   4.686   2.083
 2853WAT      O 8580   5.140   4.755   2.642
 2853WAT     H1 8581   5.058   4.798   2.668
 2853WAT     H2 8582   5.180   4.817   2.581
 2854WAT      O 8583   5.346   4.561   1.332
 2854WAT     H1 8584   5.373   4.652   1.319
 2854WAT     H2 8585   5.327   4.555   1.426
 2855WAT      O 8586   4.986   3.863   1.461
 2855WAT     H1 8587   5.027   3.845   1.377
 2855WAT     H2 8588   4.955   3.778   1.493
 2856WAT      O 8589   5.336   4.355   1.831
 2856WAT     H1 8590   5.298   4.278   1.788
 2856WAT     H2 8591   5.263   4.393   1.880
 2857WAT      O 8592   3.795   4.422   2.493
 2857WAT     H1 8593   3.831   4.414   2.581
 2857WAT     H2 8594   3.738   4.346   2.483
 2858WAT      O 8595   5.275   4.269   2.795
 2858WAT     H1 8596   5.251   4.246   2.705
 2858WAT     H2 8597   5.301   4.361   2.790
 2859WAT      O 8598   3.750   4.114   2.884
 2859WAT     H1 8599   3.660   4.110   2.918
 2859WAT     H2 8600   3.804   4.133   2.960
 2860WAT      O 8601   5.118   3.792   3.072
 2860WAT     H1 8602   5.206   3.793   3.111
 2860WAT     H2 8603   5.120   3.718   3.011
 2861WAT      O 8604   3.612   4.105   1.634
 2861WAT     H1 8605   3.522   4.131   1.616
 2861WAT     H2 8606   3.661   4.132   1.556
 2862WAT      O 8607   5.263   4.177   2.161
 2862WAT     H1 8608   5.315   4.128   2.098
 2862WAT     H2 8609   5.322   4.191   2.236
 2863WAT      O 8610   5.281   4.186   2.514
 2863WAT     H1 8611   5.186   4.182   2.525
 2863WAT     H2 8612   5.299   4.277   2.490
 2864WAT      O 8613   3.866   4.011   1.424
 2864WAT     H1 8614   3.937   3.968   1.376
 2864WAT     H2 8615   3.795   4.017   1.361
 2865WAT      O 8616   3.831   3.616   1.329
 2865WAT     H1 8617   3.903   3.670   1.360
 2865WAT     H2 8618   3.858   3.589   1.241
 2866WAT      O 8619   5.212   4.103   1.755
 2866WAT     H1 8620   5.262   4.080   1.834
 2866WAT     H2 8621   5.192   4.019   1.714
 2867WAT      O 8622   3.800   3.541   2.319
 2867WAT     H1 8623   3.865   3.486   2.275
 2867WAT     H2 8624   3.842   3.566   2.401
 2868WAT      O 8625   5.355   3.966   2.009
 2868WAT     H1 8626   5.344   3.951   2.102
 2868WAT     H2 8627   5.431   3.914   1.984
 2869WAT      O 8628   5.190   3.560   2.654
 2869WAT     H1 8629   5.253   3.622   2.691
 2869WAT     H2 8630   5.204   3.564   2.560
 2870WAT      O 8631   5.444   3.750   1.333
 2870WAT     H1 8632   5.536   3.736   1.312
 2870WAT     H2 8633   5.442   3.757   1.428
 2871WAT      O 8634   5.451   3.827   1.595
 2871WAT     H1 8635   5.372   3.820   1.648
 2871WAT     H2 8636   5.472   3.920   1.594
 2872WAT      O 8637   5.145   5.231   1.995
 2872WAT     H1 8638   5.205   5.198   1.927
 2872WAT     H2 8639   5.171   5.183   2.074
 2873WAT      O 8640   3.775   3.557   2.593
 2873WAT     H1 8641   3.741   3.602   2.670
 2873WAT     H2 8642   3.742   3.467   2.601
 2874WAT      O 8643   3.936   4.874   3.010
 2874WAT     H1 8644   3.932   4.837   3.098
 2874WAT     H2 8645   3.949   4.968   3.024
 2875WAT      O 8646   4.306   5.029   2.570
 2875WAT     H1 8647   4.282   5.056   2.481
 2875WAT     H2 8648   4.400   5.046   2.575
 2876WAT      O 8649   4.527   3.676   2.945
 2876WAT     H1 8650   4.521   3.735   3.020
 2876WAT     H2 8651   4.621   3.665   2.931
 2877WAT      O 8652   4.790   3.641   2.909
 2877WAT     H1 8653   4.852   3.673   2.843
 2877WAT     H2 8654   4.845   3.593   2.971
 2878WAT      O 8655   5.432   5.231   2.650
 2878WAT     H1 8656   5.383   5.271   2.578
 2878WAT     H2 8657   5.371   5.169   2.689
 2879WAT      O 8658   3.920   5.168   2.722
 2879WAT     H1 8659   3.861   5.155   2.795
 2879WAT     H2 8660   3.919   5.085   2.675
 2880WAT      O 8661   4.864   3.498   2.542
 2880WAT     H1 8662   4.777   3.531   2.522
 2880WAT     H2 8663   4.854   3.450   2.624
 2881WAT      O 8664   4.955   3.718   2.680
 2881WAT     H1 8665   4.922   3.637   2.642
 2881WAT     H2 8666   5.050   3.714   2.668
 2882WAT      O 8667   5.201   5.296   2.378
 2882WAT     H1 8668   5.155   5.371   2.340
 2882WAT     H2 8669   5.138   5.224   2.372
 2883WAT      O 8670   3.883   4.905   2.617
 2883WAT     H1 8671   3.810   4.843   2.610
 2883WAT     H2 8672   3.889   4.944   2.530
 2884WAT      O 8673   4.243   5.126   2.295
 2884WAT     H1 8674   4.295   5.065   2.243
 2884WAT     H2 8675   4.308   5.177   2.344
 2885WAT      O 8676   4.517   5.216   2.378
 2885WAT     H1 8677   4.546   5.190   2.290
 2885WAT     H2 8678   4.569   5.160   2.437
 2886WAT      O 8679   4.639   3.589   2.436
 2886WAT     H1 8680   4.561   3.637   2.464
 2886WAT     H2 8681   4.610   3.499   2.425
 2887WAT      O 8682   5.094   3.660   2.240
 2887WAT     H1 8683   5.138   3.654   2.155
 2887WAT     H2 8684   5.067   3.751   2.247
 2888WAT      O 8685   5.281   3.623   2.041
 2888WAT     H1 8686   5.275   3.528   2.027
 2888WAT     H2 8687   5.359   3.634   2.096
 2889WAT      O 8688   3.711   5.237   1.938
 2889WAT     H1 8689   3.695   5.173   2.007
 2889WAT     H2 8690   3.625   5.257   1.902
 2890WAT      O 8691   3.774   3.620   1.688
 2890WAT     H1 8692   3.849   3.631   1.631
 2890WAT     H2 8693   3.727   3.704   1.683
 2891WAT      O 8694   4.428   3.831   1.987
 2891WAT     H1 8695   4.346   3.794   1.953
 2891WAT     H2 8696   4.478   3.756   2.017
 2892WAT      O 8697   4.878   3.498   2.111
 2892WAT     H1 8698   4.938   3.555   2.158
 2892WAT     H2 8699   4.804   3.554   2.088
 2893WAT      O 8700   5.192   3.538   1.638
 2893WAT     H1 8701   5.212   3.628   1.665
 2893WAT     H2 8702   5.114   3.515   1.687
 2894WAT      O 8703   3.872   5.106   1.682
 2894WAT     H1 8704   3.819   5.144   1.612
 2894WAT     H2 8705   3.864   5.169   1.754
 2895WAT      O 8706   4.011   3.673   1.542
 2895WAT     H1 8707   4.064   3.594   1.529
 2895WAT     H2 8708   4.074   3.740   1.565
 2896WAT      O 8709   4.230   3.646   1.847
 2896WAT     H1 8710   4.167   3.576   1.864
 2896WAT     H2 8711   4.176   3.722   1.826
 2897WAT      O 8712   4.524   5.308   3.114
 2897WAT     H1 8713   4.617   5.284   3.119
 2897WAT     H2 8714   4.523   5.390   3.066
 2898WAT      O 8715   5.348   5.262   1.814
 2898WAT     H1 8716   5.365   5.193   1.750
 2898WAT     H2 8717   5.278   5.314   1.775
 2899WAT      O 8718   4.132   5.301   1.570
 2899WAT     H1 8719   4.205   5.272   1.515
 2899WAT     H2 8720   4.158   5.277   1.659
 2900WAT      O 8721   4.048   4.913   1.570
 2900WAT     H1 8722   3.985   4.959   1.625
 2900WAT     H2 8723   4.060   4.828   1.613
 2901WAT      O 8724   4.903   3.516   3.149
 2901WAT     H1 8725   4.892   3.548   3.238
 2901WAT     H2 8726   4.985   3.556   3.119
 2902WAT      O 8727   5.181   5.230   3.097
 2902WAT     H1 8728   5.260   5.181   3.076
 2902WAT     H2 8729   5.210   5.298   3.158
 2903WAT      O 8730   4.607   4.495   0.373
 2903WAT     H1 8731   4.529   4.447   0.402
 2903WAT     H2 8732   4.672   4.427   0.356
 2904WAT      O 8733   4.008   4.527   0.461
 2904WAT     H1 8734   3.925   4.501   0.501
 2904WAT     H2 8735   4.069   4.534   0.534
 2905WAT      O 8736   5.009   4.936   0.251
 2905WAT     H1 8737   4.963   4.859   0.284
 2905WAT     H2 8738   5.090   4.939   0.302
 2906WAT      O 8739   4.006   4.930   0.480
 2906WAT     H1 8740   4.037   4.841   0.463
 2906WAT     H2 8741   4.081   4.986   0.458
 2907WAT      O 8742   3.646   4.283   0.428
 2907WAT     H1 8743   3.703   4.206   0.428
 2907WAT     H2 8744   3.646   4.313   0.337
 2908WAT      O 8745   4.551   4.763   0.374
 2908WAT     H1 8746   4.544   4.669   0.358
 2908WAT     H2 8747   4.627   4.772   0.431
 2909WAT      O 8748   3.770   3.823   0.606
 2909WAT     H1 8749   3.752   3.734   0.634
 2909WAT     H2 8750   3.730   3.878   0.674
 2910WAT      O 8751   4.654   4.044   0.397
 2910WAT     H1 8752   4.691   3.956   0.385
 2910WAT     H2 8753   4.644   4.077   0.307
 2911WAT      O 8754   3.832   4.073   0.467
 2911WAT     H1 8755   3.900   4.099   0.529
 2911WAT     H2 8756   3.800   3.989   0.501
 2912WAT      O 8757   4.251   4.178   0.376
 2912WAT     H1 8758   4.302   4.228   0.440
 2912WAT     H2 8759   4.304   4.100   0.358
 2913WAT      O 8760   5.461   3.995   0.746
 2913WAT     H1 8761   5.391   4.034   0.694
 2913WAT     H2 8762   5.488   4.064   0.806
 2914WAT      O 8763   4.079   3.642   0.803
 2914WAT     H1 8764   4.080   3.693   0.722
 2914WAT     H2 8765   3.996   3.594   0.800
 2915WAT      O 8766   4.204   4.606   0.620
 2915WAT     H1 8767   4.171   4.668   0.685
 2915WAT     H2 8768   4.222   4.658   0.542
 2916WAT      O 8769   5.056   3.987   0.367
 2916WAT     H1 8770   4.985   4.016   0.425
 2916WAT     H2 8771   5.092   4.068   0.331
 2917WAT      O 8772   4.047   3.813   0.603
 2917WAT     H1 8773   4.082   3.897   0.574
 2917WAT     H2 8774   3.954   3.828   0.615
 2918WAT      O 8775   4.126   4.803   0.802
 2918WAT     H1 8776   4.187   4.870   0.774
 2918WAT     H2 8777   4.039   4.843   0.793
 2919WAT      O 8778   5.217   4.949   0.593
 2919WAT     H1 8779   5.149   5.016   0.593
 2919WAT     H2 8780   5.271   4.969   0.517
 2920WAT      O 8781   5.363   3.932   0.406
 2920WAT     H1 8782   5.268   3.935   0.419
 2920WAT     H2 8783   5.395   4.013   0.445
 2921WAT      O 8784   4.971   5.133   0.465
 2921WAT     H1 8785   4.972   5.093   0.378
 2921WAT     H2 8786   4.916   5.211   0.454
 2922WAT      O 8787   4.911   4.624   0.598
 2922WAT     H1 8788   4.952   4.602   0.514
 2922WAT     H2 8789   4.983   4.649   0.655
 2923WAT      O 8790   5.305   4.464   0.607
 2923WAT     H1 8791   5.223   4.470   0.559
 2923WAT     H2 8792   5.365   4.522   0.560
 2924WAT      O 8793   5.002   4.142   0.701
 2924WAT     H1 8794   4.961   4.225   0.727
 2924WAT     H2 8795   4.929   4.084   0.682
 2925WAT      O 8796   4.262   4.789   0.404
 2925WAT     H1 8797   4.232   4.729   0.336
 2925WAT     H2 8798   4.357   4.793   0.393
 2926WAT      O 8799   4.086   4.098   0.566
 2926WAT     H1 8800   4.142   4.109   0.488
 2926WAT     H2 8801   4.138   4.136   0.637
 2927WAT      O 8802   5.071   5.147   0.770
 2927WAT     H1 8803   5.023   5.228   0.751
 2927WAT     H2 8804   5.002   5.082   0.785
 2928WAT      O 8805   4.171   4.763   1.069
 2928WAT     H1 8806   4.081   4.786   1.094
 2928WAT     H2 8807   4.174   4.776   0.974
 2929WAT      O 8808   4.054   4.450   0.927
 2929WAT     H1 8809   4.040   4.538   0.963
 2929WAT     H2 8810   3.966   4.416   0.912
 2930WAT      O 8811   4.234   5.045   1.147
 2930WAT     H1 8812   4.231   5.085   1.061
 2930WAT     H2 8813   4.217   4.952   1.131
 2931WAT      O 8814   5.429   5.123   1.277
 2931WAT     H1 8815   5.476   5.171   1.345
 2931WAT     H2 8816   5.491   5.116   1.205
 2932WAT      O 8817   3.649   4.627   0.518
 2932WAT     H1 8818   3.657   4.641   0.424
 2932WAT     H2 8819   3.710   4.557   0.538
 2933WAT      O 8820   5.369   4.842   0.993
 2933WAT     H1 8821   5.382   4.818   0.901
 2933WAT     H2 8822   5.373   4.759   1.040
 2934WAT      O 8823   4.755   5.212   0.850
 2934WAT     H1 8824   4.807   5.203   0.930
 2934WAT     H2 8825   4.671   5.247   0.879
 2935WAT      O 8826   5.354   4.047   1.090
 2935WAT     H1 8827   5.293   4.098   1.037
 2935WAT     H2 8828   5.322   3.957   1.084
 2936WAT      O 8829   3.655   4.732   0.772
 2936WAT     H1 8830   3.671   4.685   0.690
 2936WAT     H2 8831   3.701   4.681   0.839
 2937WAT      O 8832   4.132   3.645   0.276
 2937WAT     H1 8833   4.088   3.723   0.243
 2937WAT     H2 8834   4.188   3.677   0.347
 2938WAT      O 8835   4.561   3.931   0.836
 2938WAT     H1 8836   4.514   3.952   0.917
 2938WAT     H2 8837   4.520   3.850   0.806
 2939WAT      O 8838   5.061   4.053   0.949
 2939WAT     H1 8839   4.976   4.023   0.981
 2939WAT     H2 8840   5.045   4.078   0.858
 2940WAT      O 8841   4.770   4.203   1.159
 2940WAT     H1 8842   4.803   4.120   1.125
 2940WAT     H2 8843   4.849   4.256   1.174
 2941WAT      O 8844   4.336   3.699   0.462
 2941WAT     H1 8845   4.365   3.790   0.454
 2941WAT     H2 8846   4.390   3.650   0.400
 2942WAT      O 8847   4.355   4.247   1.115
 2942WAT     H1 8848   4.345   4.153   1.100
 2942WAT     H2 8849   4.439   4.269   1.076
 2943WAT      O 8850   3.868   3.888   0.931
 2943WAT     H1 8851   3.829   3.973   0.951
 2943WAT     H2 8852   3.799   3.824   0.950
 2944WAT      O 8853   4.526   3.896   1.238
 2944WAT     H1 8854   4.457   3.877   1.301
 2944WAT     H2 8855   4.600   3.925   1.291
 2945WAT      O 8856   3.598   3.680   0.334
 2945WAT     H1 8857   3.569   3.737   0.405
 2945WAT     H2 8858   3.673   3.632   0.370
 2946WAT      O 8859   4.753   4.280   0.521
 2946WAT     H1 8860   4.680   4.331   0.556
 2946WAT     H2 8861   4.713   4.199   0.491
 2947WAT      O 8862   4.397   3.948   0.362
 2947WAT     H1 8863   4.397   3.904   0.277
 2947WAT     H2 8864   4.486   3.980   0.372
 2948WAT      O 8865   3.982   3.936   0.258
 2948WAT     H1 8866   3.948   3.984   0.333
 2948WAT     H2 8867   3.906   3.891   0.222
 2949WAT      O 8868   4.799   3.826   0.462
 2949WAT     H1 8869   4.801   3.871   0.547
 2949WAT     H2 8870   4.775   3.736   0.484
 2950WAT      O 8871   5.142   3.567   1.046
 2950WAT     H1 8872   5.175   3.494   1.099
 2950WAT     H2 8873   5.146   3.535   0.956
 2951WAT      O 8874   3.812   4.669   0.988
 2951WAT     H1 8875   3.774   4.605   1.048
 2951WAT     H2 8876   3.843   4.739   1.045
 2952WAT      O 8877   4.427   4.354   0.536
 2952WAT     H1 8878   4.464   4.306   0.611
 2952WAT     H2 8879   4.408   4.441   0.570
 2953WAT      O 8880   4.206   4.258   0.768
 2953WAT     H1 8881   4.176   4.346   0.791
 2953WAT     H2 8882   4.301   4.264   0.772
 2954WAT      O 8883   5.135   4.578   0.407
 2954WAT     H1 8884   5.207   4.628   0.368
 2954WAT     H2 8885   5.115   4.510   0.343
 2955WAT      O 8886   4.673   4.585   0.996
 2955WAT     H1 8887   4.666   4.493   0.970
 2955WAT     H2 8888   4.610   4.595   1.067
 2956WAT      O 8889   4.063   4.645   0.192
 2956WAT     H1 8890   4.115   4.565   0.186
 2956WAT     H2 8891   4.018   4.639   0.276
 2957WAT      O 8892   3.812   4.342   0.883
 2957WAT     H1 8893   3.776   4.408   0.942
 2957WAT     H2 8894   3.782   4.259   0.920
 2958WAT      O 8895   4.132   4.388   1.171
 2958WAT     H1 8896   4.102   4.402   1.081
 2958WAT     H2 8897   4.209   4.332   1.162
 2959WAT      O 8898   4.666   4.867   0.971
 2959WAT     H1 8899   4.667   4.774   0.949
 2959WAT     H2 8900   4.595   4.876   1.035
 2960WAT      O 8901   5.287   4.532   0.905
 2960WAT     H1 8902   5.215   4.591   0.886
 2960WAT     H2 8903   5.340   4.531   0.826
 2961WAT      O 8904   4.840   4.704   0.255
 2961WAT     H1 8905   4.875   4.644   0.189
 2961WAT     H2 8906   4.752   4.672   0.272
 2962WAT      O 8907   4.609   5.032   0.680
 2962WAT     H1 8908   4.674   5.052   0.748
 2962WAT     H2 8909   4.646   4.956   0.635
 2963WAT      O 8910   4.737   4.832   0.552
 2963WAT     H1 8911   4.801   4.762   0.563
 2963WAT     H2 8912   4.789   4.910   0.534
 2964WAT      O 8913   4.914   4.912   0.872
 2964WAT     H1 8914   4.948   4.971   0.940
 2964WAT     H2 8915   4.822   4.899   0.895
 2965WAT      O 8916   3.669   3.691   0.951
 2965WAT     H1 8917   3.598   3.711   1.011
 2965WAT     H2 8918   3.711   3.613   0.988
 2966WAT      O 8919   3.698   5.090   1.049
 2966WAT     H1 8920   3.709   4.996   1.035
 2966WAT     H2 8921   3.633   5.116   0.984
 2967WAT      O 8922   4.497   4.917   1.189
 2967WAT     H1 8923   4.465   4.845   1.244
 2967WAT     H2 8924   4.430   4.984   1.197
 2968WAT      O 8925   4.819   3.940   0.726
 2968WAT     H1 8926   4.855   3.858   0.758
 2968WAT     H2 8927   4.732   3.946   0.767
 2969WAT      O 8928   4.515   4.205   0.748
 2969WAT     H1 8929   4.564   4.253   0.814
 2969WAT     H2 8930   4.529   4.113   0.769
 2970WAT      O 8931   5.235   3.827   0.832
 2970WAT     H1 8932   5.185   3.901   0.866
 2970WAT     H2 8933   5.317   3.866   0.801
 2971WAT      O 8934   5.064   4.352   0.177
 2971WAT     H1 8935   4.970   4.353   0.194
 2971WAT     H2 8936   5.096   4.273   0.221
 2972WAT      O 8937   5.265   5.069   0.344
 2972WAT     H1 8938   5.277   5.151   0.392
 2972WAT     H2 8939   5.351   5.048   0.310
 2973WAT      O 8940   4.012   5.278   0.312
 2973WAT     H1 8941   4.085   5.223   0.339
 2973WAT     H2 8942   4.050   5.364   0.298
 2974WAT      O 8943   3.912   5.196   1.230
 2974WAT     H1 8944   3.993   5.228   1.272
 2974WAT     H2 8945   3.861   5.160   1.303
 2975WAT      O 8946   4.796   4.807   1.225
 2975WAT     H1 8947   4.735   4.809   1.151
 2975WAT     H2 8948   4.766   4.734   1.279
 2976WAT      O 8949   4.939   5.180   1.086
 2976WAT     H1 8950   5.034   5.172   1.081
 2976WAT     H2 8951   4.924   5.246   1.154
 2977WAT      O 8952   3.684   4.445   1.125
 2977WAT     H1 8953   3.735   4.387   1.182
 2977WAT     H2 8954   3.610   4.474   1.179
 2978WAT      O 8955   4.390   4.586   1.078
 2978WAT     H1 8956   4.313   4.643   1.070
 2978WAT     H2 8957   4.408   4.557   0.989
 2979WAT      O 8958   5.104   4.759   1.134
 2979WAT     H1 8959   5.178   4.793   1.084
 2979WAT     H2 8960   5.028   4.776   1.079
 2980WAT      O 8961   3.888   4.259   1.214
 2980WAT     H1 8962   3.892   4.230   1.305
 2980WAT     H2 8963   3.973   4.299   1.198
 2981WAT      O 8964   4.082   4.117   1.011
 2981WAT     H1 8965   4.029   4.068   0.948
 2981WAT     H2 8966   4.149   4.160   0.958
 2982WAT      O 8967   4.971   4.564   0.987
 2982WAT     H1 8968   5.013   4.579   1.072
 2982WAT     H2 8969   4.878   4.577   1.004
 2983WAT      O 8970   5.019   4.298   1.188
 2983WAT     H1 8971   5.077   4.222   1.179
 2983WAT     H2 8972   5.036   4.351   1.110
 2984WAT      O 8973   4.130   3.814   1.019
 2984WAT     H1 8974   4.121   3.752   0.946
 2984WAT     H2 8975   4.072   3.887   0.996
 2985WAT      O 8976   4.407   3.670   0.722
 2985WAT     H1 8977   4.362   3.672   0.638
 2985WAT     H2 8978   4.344   3.630   0.782
 2986WAT      O 8979   4.448   4.559   0.784
 2986WAT     H1 8980   4.490   4.644   0.767
 2986WAT     H2 8981   4.356   4.573   0.761
 2987WAT      O 8982   4.681   4.332   0.923
 2987WAT     H1 8983   4.693   4.273   0.997
 2987WAT     H2 8984   4.767   4.336   0.881
 2988WAT      O 8985   4.915   4.388   0.780
 2988WAT     H1 8986   4.862   4.440   0.720
 2988WAT     H2 8987   4.949   4.451   0.843
 2989WAT      O 8988   4.233   5.190   0.896
 2989WAT     H1 8989   4.179   5.262   0.864
 2989WAT     H2 8990   4.258   5.142   0.817
 2990WAT      O 8991   4.358   3.987   1.049
 2990WAT     H1 8992   4.417   3.956   1.117
 2990WAT     H2 8993   4.276   3.939   1.064
 2991WAT      O 8994   4.840   3.948   1.072
 2991WAT     H1 8995   4.771   3.882   1.065
 2991WAT     H2 8996   4.912   3.904   1.116
 2992WAT      O 8997   4.518   5.313   0.922
 2992WAT     H1 8998   4.511   5.404   0.953
 2992WAT     H2 8999   4.428   5.281   0.919
 2993WAT      O 9000   3.659   5.046   0.252
 2993WAT     H1 9001   3.692   4.959   0.229
 2993WAT     H2 9002   3.702   5.067   0.335
 2994WAT      O 9003   3.708   5.133   0.526
 2994WAT     H1 9004   3.664   5.151   0.609
 2994WAT     H2 9005   3.764   5.208   0.512
 2995WAT      O 9006   5.271   5.083   0.955
 2995WAT     H1 9007   5.211   5.089   0.880
 2995WAT     H2 9008   5.284   4.989   0.968
 2996WAT      O 9009   5.441   4.617   0.223
 2996WAT     H1 9010   5.478   4.539   0.183
 2996WAT     H2 9011   5.505   4.686   0.205
 2997WAT      O 9012   5.140   4.755   0.765
 2997WAT     H1 9013   5.058   4.798   0.791
 2997WAT     H2 9014   5.180   4.817   0.703
 2998WAT      O 9015   3.795   4.422   0.616
 2998WAT     H1 9016   3.831   4.414   0.704
 2998WAT     H2 9017   3.738   4.346   0.606
 2999WAT      O 9018   5.275   4.269   0.917
 2999WAT     H1 9019   5.251   4.246   0.827
 2999WAT     H2 9020   5.301   4.361   0.913
 3000WAT      O 9021   3.750   4.114   1.006
 3000WAT     H1 9022   3.660   4.110   1.040
 3000WAT     H2 9023   3.804   4.133   1.083
 3001WAT      O 9024   5.118   3.792   1.195
 3001WAT     H1 9025   5.206   3.793   1.233
 3001WAT     H2 9026   5.120   3.718   1.134
 3002WAT      O 9027   5.263   4.177   0.284
 3002WAT     H1 9028   5.315   4.128   0.221
 3002WAT     H2 9029   5.322   4.191   0.358
 3003WAT      O 9030   5.281   4.186   0.636
 3003WAT     H1 9031   5.186   4.182   0.648
 3003WAT     H2 9032   5.299   4.277   0.613
 3004WAT      O 9033   3.800   3.541   0.441
 3004WAT     H1 9034   3.865   3.486   0.397
 3004WAT     H2 9035   3.842   3.566   0.523
 3005WAT      O 9036   5.190   3.560   0.777
 3005WAT     H1 9037   5.253   3.622   0.814
 3005WAT     H2 9038   5.204   3.564   0.683
 3006WAT      O 9039   3.775   3.557   0.716
 3006WAT     H1 9040   3.741   3.602   0.792
 3006WAT     H2 9041   3.742   3.467   0.724
 3007WAT      O 9042   3.936   4.874   1.132
 3007WAT     H1 9043   3.932   4.837   1.220
 3007WAT     H2 9044   3.949   4.968   1.146
 3008WAT      O 9045   4.306   5.029   0.692
 3008WAT     H1 9046   4.282   5.056   0.603
 3008WAT     H2 9047   4.400   5.046   0.698
 3009WAT      O 9048   4.527   3.676   1.068
 3009WAT     H1 9049   4.521   3.735   1.143
 3009WAT     H2 9050   4.621   3.665   1.053
 3010WAT      O 9051   4.790   3.641   1.032
 3010WAT     H1 9052   4.852   3.673   0.965
 3010WAT     H2 9053   4.845   3.593   1.094
 3011WAT      O 9054   5.432   5.231   0.772
 3011WAT     H1 9055   5.383   5.271   0.701
 3011WAT     H2 9056   5.371   5.169   0.812
 3012WAT      O 9057   3.843   3.509   1.043
 3012WAT     H1 9058   3.897   3.491   0.967
 3012WAT     H2 9059   3.849   3.430   1.097
 3013WAT      O 9060   3.920   5.168   0.844
 3013WAT     H1 9061   3.861   5.155   0.918
 3013WAT     H2 9062   3.919   5.085   0.797
 3014WAT      O 9063   4.864   3.498   0.664
 3014WAT     H1 9064   4.777   3.531   0.644
 3014WAT     H2 9065   4.854   3.450   0.747
 3015WAT      O 9066   4.955   3.718   0.803
 3015WAT     H1 9067   4.922   3.637   0.765
 3015WAT     H2 9068   5.050   3.714   0.790
 3016WAT      O 9069   5.201   5.296   0.500
 3016WAT     H1 9070   5.155   5.371   0.463
 3016WAT     H2 9071   5.138   5.224   0.494
 3017WAT      O 9072   3.883   4.905   0.739
 3017WAT     H1 9073   3.810   4.843   0.732
 3017WAT     H2 9074   3.889   4.944   0.652
 3018WAT      O 9075   4.243   5.126   0.418
 3018WAT     H1 9076   4.295   5.065   0.365
 3018WAT     H2 9077   4.308   5.177   0.467
 3019WAT      O 9078   4.517   5.216   0.500
 3019WAT     H1 9079   4.546   5.190   0.413
 3019WAT     H2 9080   4.569   5.160   0.559
 3020WAT      O 9081   4.639   3.589   0.558
 3020WAT     H1 9082   4.561   3.637   0.586
 3020WAT     H2 9083   4.610   3.499   0.547
 3021WAT      O 9084   5.094   3.660   0.363
 3021WAT     H1 9085   5.138   3.654   0.278
 3021WAT     H2 9086   5.067   3.751   0.370
 3022WAT      O 9087   4.878   3.498   0.233
 3022WAT     H1 9088   4.938   3.555   0.281
 3022WAT     H2 9089   4.804   3.554   0.211
 3023WAT      O 9090   4.524   5.308   1.237
 3023WAT     H1 9091   4.617   5.284   1.241
 3023WAT     H2 9092   4.523   5.390   1.189
 3024WAT      O 9093   4.243   3.574   1.213
 3024WAT     H1 9094   4.215   3.624   1.137
 3024WAT     H2 9095   4.281   3.494   1.177
 3025WAT      O 9096   4.903   3.516   1.271
 3025WAT     H1 9097   4.892   3.548   1.361
 3025WAT     H2 9098   4.985   3.556   1.242
 3026WAT      O 9099   5.181   5.230   1.219
 3026WAT     H1 9100   5.260   5.181   1.199
 3026WAT     H2 9101   5.210   5.298   1.280
 3027WAT      O 9102   4.794   2.440   5.817
 3027WAT     H1 9103   4.785   2.349   5.790
 3027WAT     H2 9104   4.752   2.490   5.747
 3028WAT      O 9105   4.607   2.618   6.005
 3028WAT     H1 9106   4.529   2.570   6.034
 3028WAT     H2 9107   4.672   2.550   5.988
 3029WAT      O 9108   5.009   3.059   5.883
 3029WAT     H1 9109   4.963   2.981   5.916
 3029WAT     H2 9110   5.090   3.061   5.934
 3030WAT      O 9111   4.006   3.053   6.113
 3030WAT     H1 9112   4.037   2.964   6.095
 3030WAT     H2 9113   4.081   3.108   6.090
 3031WAT      O 9114   3.849   2.145   5.472
 3031WAT     H1 9115   3.760   2.179   5.461
 3031WAT     H2 9116   3.878   2.125   5.382
 3032WAT      O 9117   3.646   2.405   6.060
 3032WAT     H1 9118   3.703   2.328   6.060
 3032WAT     H2 9119   3.646   2.435   5.969
 3033WAT      O 9120   4.631   3.287   5.845
 3033WAT     H1 9121   4.570   3.333   5.788
 3033WAT     H2 9122   4.717   3.303   5.805
 3034WAT      O 9123   4.551   2.886   6.006
 3034WAT     H1 9124   4.544   2.791   5.990
 3034WAT     H2 9125   4.627   2.895   6.063
 3035WAT      O 9126   4.654   2.166   6.029
 3035WAT     H1 9127   4.691   2.079   6.018
 3035WAT     H2 9128   4.644   2.200   5.940
 3036WAT      O 9129   4.067   2.003   5.575
 3036WAT     H1 9130   4.078   2.094   5.606
 3036WAT     H2 9131   3.976   1.999   5.546
 3037WAT      O 9132   5.032   1.916   5.722
 3037WAT     H1 9133   5.114   1.867   5.726
 3037WAT     H2 9134   5.035   1.975   5.797
 3038WAT      O 9135   4.251   2.300   6.008
 3038WAT     H1 9136   4.302   2.350   6.072
 3038WAT     H2 9137   4.304   2.223   5.991
 3039WAT      O 9138   4.718   2.776   5.585
 3039WAT     H1 9139   4.656   2.822   5.528
 3039WAT     H2 9140   4.769   2.845   5.626
 3040WAT      O 9141   5.056   2.110   5.999
 3040WAT     H1 9142   4.985   2.139   6.057
 3040WAT     H2 9143   5.092   2.191   5.963
 3041WAT      O 9144   3.655   2.844   5.322
 3041WAT     H1 9145   3.617   2.893   5.249
 3041WAT     H2 9146   3.681   2.911   5.385
 3042WAT      O 9147   5.363   2.054   6.038
 3042WAT     H1 9148   5.268   2.058   6.052
 3042WAT     H2 9149   5.395   2.136   6.077
 3043WAT      O 9150   4.416   1.684   5.868
 3043WAT     H1 9151   4.447   1.629   5.796
 3043WAT     H2 9152   4.323   1.698   5.850
 3044WAT      O 9153   4.971   3.256   6.097
 3044WAT     H1 9154   4.972   3.216   6.010
 3044WAT     H2 9155   4.916   3.333   6.087
 3045WAT      O 9156   5.100   2.928   5.606
 3045WAT     H1 9157   5.089   2.834   5.618
 3045WAT     H2 9158   5.100   2.964   5.695
 3046WAT      O 9159   4.655   2.491   5.542
 3046WAT     H1 9160   4.562   2.484   5.565
 3046WAT     H2 9161   4.670   2.585   5.530
 3047WAT      O 9162   4.653   2.118   5.241
 3047WAT     H1 9163   4.559   2.134   5.250
 3047WAT     H2 9164   4.685   2.190   5.187
 3048WAT      O 9165   5.058   2.647   5.592
 3048WAT     H1 9166   4.996   2.613   5.527
 3048WAT     H2 9167   5.056   2.583   5.663
 3049WAT      O 9168   4.215   2.543   5.820
 3049WAT     H1 9169   4.175   2.472   5.770
 3049WAT     H2 9170   4.224   2.509   5.909
 3050WAT      O 9171   4.262   2.912   6.036
 3050WAT     H1 9172   4.232   2.852   5.968
 3050WAT     H2 9173   4.357   2.916   6.025
 3051WAT      O 9174   4.875   2.571   5.293
 3051WAT     H1 9175   4.919   2.487   5.278
 3051WAT     H2 9176   4.946   2.634   5.301
 3052WAT      O 9177   4.686   3.065   5.690
 3052WAT     H1 9178   4.730   3.139   5.648
 3052WAT     H2 9179   4.680   3.089   5.782
 3053WAT      O 9180   5.233   1.696   5.124
 3053WAT     H1 9181   5.202   1.705   5.214
 3053WAT     H2 9182   5.309   1.754   5.119
 3054WAT      O 9183   3.885   2.433   5.570
 3054WAT     H1 9184   3.873   2.505   5.509
 3054WAT     H2 9185   3.854   2.356   5.522
 3055WAT      O 9186   3.774   2.920   5.792
 3055WAT     H1 9187   3.733   2.934   5.706
 3055WAT     H2 9188   3.863   2.892   5.771
 3056WAT      O 9189   4.953   3.363   5.425
 3056WAT     H1 9190   4.937   3.334   5.515
 3056WAT     H2 9191   4.936   3.286   5.372
 3057WAT      O 9192   4.201   3.341   5.603
 3057WAT     H1 9193   4.183   3.250   5.582
 3057WAT     H2 9194   4.115   3.377   5.627
 3058WAT      O 9195   4.923   3.114   5.281
 3058WAT     H1 9196   4.854   3.114   5.215
 3058WAT     H2 9197   4.997   3.072   5.238
 3059WAT      O 9198   4.880   3.277   5.689
 3059WAT     H1 9199   4.925   3.199   5.720
 3059WAT     H2 9200   4.914   3.348   5.743
 3060WAT      O 9201   4.132   1.767   5.908
 3060WAT     H1 9202   4.088   1.845   5.875
 3060WAT     H2 9203   4.188   1.799   5.979
 3061WAT      O 9204   4.443   1.729   5.396
 3061WAT     H1 9205   4.381   1.729   5.469
 3061WAT     H2 9206   4.435   1.643   5.357
 3062WAT      O 9207   4.336   1.822   6.094
 3062WAT     H1 9208   4.365   1.912   6.086
 3062WAT     H2 9209   4.390   1.773   6.033
 3063WAT      O 9210   4.111   2.280   5.681
 3063WAT     H1 9211   4.088   2.258   5.771
 3063WAT     H2 9212   4.033   2.323   5.646
 3064WAT      O 9213   4.834   2.280   5.541
 3064WAT     H1 9214   4.774   2.353   5.522
 3064WAT     H2 9215   4.889   2.274   5.463
 3065WAT      O 9216   4.695   2.144   5.744
 3065WAT     H1 9217   4.734   2.175   5.663
 3065WAT     H2 9218   4.731   2.056   5.755
 3066WAT      O 9219   3.598   1.803   5.966
 3066WAT     H1 9220   3.569   1.860   6.037
 3066WAT     H2 9221   3.673   1.755   6.002
 3067WAT      O 9222   3.617   2.197   5.087
 3067WAT     H1 9223   3.609   2.291   5.101
 3067WAT     H2 9224   3.582   2.183   4.999
 3068WAT      O 9225   4.397   2.070   5.994
 3068WAT     H1 9226   4.397   2.026   5.909
 3068WAT     H2 9227   4.486   2.103   6.005
 3069WAT      O 9228   3.982   2.059   5.890
 3069WAT     H1 9229   3.948   2.106   5.966
 3069WAT     H2 9230   3.906   2.013   5.854
 3070WAT      O 9231   4.403   2.170   5.293
 3070WAT     H1 9232   4.415   2.166   5.388
 3070WAT     H2 9233   4.365   2.257   5.277
 3071WAT      O 9234   4.304   2.402   5.233
 3071WAT     H1 9235   4.248   2.357   5.170
 3071WAT     H2 9236   4.375   2.437   5.179
 3072WAT      O 9237   3.713   1.951   5.782
 3072WAT     H1 9238   3.685   1.914   5.865
 3072WAT     H2 9239   3.707   1.878   5.720
 3073WAT      O 9240   4.059   2.801   5.460
 3073WAT     H1 9241   3.981   2.747   5.444
 3073WAT     H2 9242   4.132   2.749   5.426
 3074WAT      O 9243   5.135   2.701   6.039
 3074WAT     H1 9244   5.207   2.750   6.000
 3074WAT     H2 9245   5.115   2.633   5.975
 3075WAT      O 9246   4.681   1.840   5.454
 3075WAT     H1 9247   4.599   1.790   5.446
 3075WAT     H2 9248   4.661   1.924   5.412
 3076WAT      O 9249   4.952   2.277   5.283
 3076WAT     H1 9250   5.041   2.308   5.266
 3076WAT     H2 9251   4.949   2.190   5.244
 3077WAT      O 9252   4.063   2.768   5.824
 3077WAT     H1 9253   4.115   2.688   5.818
 3077WAT     H2 9254   4.018   2.762   5.908
 3078WAT      O 9255   4.552   2.895   5.351
 3078WAT     H1 9256   4.586   2.969   5.302
 3078WAT     H2 9257   4.469   2.926   5.387
 3079WAT      O 9258   5.179   2.408   5.230
 3079WAT     H1 9259   5.171   2.452   5.145
 3079WAT     H2 9260   5.251   2.454   5.273
 3080WAT      O 9261   5.282   3.094   5.503
 3080WAT     H1 9262   5.218   3.028   5.530
 3080WAT     H2 9263   5.244   3.134   5.425
 3081WAT      O 9264   4.840   2.827   5.888
 3081WAT     H1 9265   4.875   2.767   5.822
 3081WAT     H2 9266   4.752   2.794   5.905
 3082WAT      O 9267   4.449   2.903   5.628
 3082WAT     H1 9268   4.518   2.957   5.666
 3082WAT     H2 9269   4.370   2.957   5.632
 3083WAT      O 9270   3.663   2.464   5.177
 3083WAT     H1 9271   3.750   2.493   5.206
 3083WAT     H2 9272   3.614   2.546   5.166
 3084WAT      O 9273   4.379   2.603   5.590
 3084WAT     H1 9274   4.425   2.684   5.612
 3084WAT     H2 9275   4.344   2.571   5.673
 3085WAT      O 9276   3.969   1.638   5.637
 3085WAT     H1 9277   3.956   1.637   5.732
 3085WAT     H2 9278   3.887   1.671   5.602
 3086WAT      O 9279   5.121   2.983   5.157
 3086WAT     H1 9280   5.099   2.911   5.216
 3086WAT     H2 9281   5.082   2.958   5.073
 3087WAT      O 9282   3.699   3.386   5.234
 3087WAT     H1 9283   3.735   3.446   5.169
 3087WAT     H2 9284   3.685   3.440   5.311
 3088WAT      O 9285   5.079   2.775   5.323
 3088WAT     H1 9286   5.051   2.821   5.402
 3088WAT     H2 9287   5.159   2.729   5.350
 3089WAT      O 9288   4.301   3.124   5.316
 3089WAT     H1 9289   4.300   3.197   5.254
 3089WAT     H2 9290   4.209   3.099   5.325
 3090WAT      O 9291   3.861   2.646   5.390
 3090WAT     H1 9292   3.800   2.720   5.391
 3090WAT     H2 9293   3.909   2.655   5.308
 3091WAT      O 9294   5.155   1.958   5.439
 3091WAT     H1 9295   5.092   1.969   5.367
 3091WAT     H2 9296   5.106   1.980   5.518
 3092WAT      O 9297   4.600   3.130   5.182
 3092WAT     H1 9298   4.610   3.110   5.089
 3092WAT     H2 9299   4.510   3.105   5.203
 3093WAT      O 9300   4.352   2.186   5.580
 3093WAT     H1 9301   4.281   2.233   5.624
 3093WAT     H2 9302   4.380   2.120   5.644
 3094WAT      O 9303   4.755   1.859   5.724
 3094WAT     H1 9304   4.743   1.860   5.629
 3094WAT     H2 9305   4.850   1.863   5.736
 3095WAT      O 9306   4.464   3.382   5.652
 3095WAT     H1 9307   4.489   3.378   5.559
 3095WAT     H2 9308   4.369   3.369   5.651
 3096WAT      O 9309   4.172   2.017   5.318
 3096WAT     H1 9310   4.257   2.061   5.311
 3096WAT     H2 9311   4.136   2.048   5.401
 3097WAT      O 9312   5.064   2.474   5.809
 3097WAT     H1 9313   4.970   2.476   5.827
 3097WAT     H2 9314   5.096   2.395   5.854
 3098WAT      O 9315   4.062   2.642   5.165
 3098WAT     H1 9316   4.139   2.631   5.221
 3098WAT     H2 9317   4.070   2.573   5.100
 3099WAT      O 9318   3.932   2.386   5.234
 3099WAT     H1 9319   3.940   2.291   5.245
 3099WAT     H2 9320   4.021   2.419   5.244
 3100WAT      O 9321   5.265   3.191   5.977
 3100WAT     H1 9322   5.277   3.273   6.024
 3100WAT     H2 9323   5.351   3.170   5.942
 3101WAT      O 9324   4.012   3.400   5.944
 3101WAT     H1 9325   4.085   3.346   5.971
 3101WAT     H2 9326   4.050   3.487   5.930
 3102WAT      O 9327   3.700   3.007   5.531
 3102WAT     H1 9328   3.608   3.031   5.530
 3102WAT     H2 9329   3.747   3.090   5.519
 3103WAT      O 9330   4.323   3.318   5.126
 3103WAT     H1 9331   4.402   3.347   5.081
 3103WAT     H2 9332   4.271   3.275   5.058
 3104WAT      O 9333   5.228   3.240   5.268
 3104WAT     H1 9334   5.200   3.199   5.187
 3104WAT     H2 9335   5.208   3.333   5.256
 3105WAT      O 9336   4.375   2.840   5.113
 3105WAT     H1 9337   4.364   2.778   5.185
 3105WAT     H2 9338   4.358   2.787   5.034
 3106WAT      O 9339   4.699   2.746   5.173
 3106WAT     H1 9340   4.644   2.791   5.237
 3106WAT     H2 9341   4.761   2.696   5.225
 3107WAT      O 9342   4.265   2.642   5.363
 3107WAT     H1 9343   4.308   2.625   5.447
 3107WAT     H2 9344   4.278   2.561   5.313
 3108WAT      O 9345   4.517   2.544   5.087
 3108WAT     H1 9346   4.569   2.473   5.051
 3108WAT     H2 9347   4.581   2.608   5.117
 3109WAT      O 9348   4.155   2.249   5.057
 3109WAT     H1 9349   4.135   2.163   5.093
 3109WAT     H2 9350   4.138   2.241   4.963
 3110WAT      O 9351   4.903   1.730   5.310
 3110WAT     H1 9352   4.931   1.646   5.346
 3110WAT     H2 9353   4.826   1.754   5.361
 3111WAT      O 9354   4.035   1.959   5.056
 3111WAT     H1 9355   4.065   1.960   4.965
 3111WAT     H2 9356   4.109   1.924   5.106
 3112WAT      O 9357   4.357   1.854   5.155
 3112WAT     H1 9358   4.322   1.786   5.097
 3112WAT     H2 9359   4.377   1.807   5.236
 3113WAT      O 9360   4.573   3.352   5.316
 3113WAT     H1 9361   4.663   3.386   5.319
 3113WAT     H2 9362   4.576   3.280   5.254
 3114WAT      O 9363   3.937   2.890   5.139
 3114WAT     H1 9364   3.981   2.944   5.205
 3114WAT     H2 9365   3.986   2.807   5.140
 3115WAT      O 9366   3.659   3.169   5.884
 3115WAT     H1 9367   3.692   3.082   5.861
 3115WAT     H2 9368   3.702   3.189   5.968
 3116WAT      O 9369   4.118   3.002   5.650
 3116WAT     H1 9370   4.088   2.989   5.741
 3116WAT     H2 9371   4.108   2.916   5.610
 3117WAT      O 9372   5.395   2.980   5.121
 3117WAT     H1 9373   5.312   2.986   5.168
 3117WAT     H2 9374   5.413   3.069   5.090
 3118WAT      O 9375   5.341   2.654   5.371
 3118WAT     H1 9376   5.417   2.711   5.382
 3118WAT     H2 9377   5.342   2.597   5.448
 3119WAT      O 9378   3.691   2.506   5.794
 3119WAT     H1 9379   3.625   2.480   5.730
 3119WAT     H2 9380   3.775   2.496   5.749
 3120WAT      O 9381   5.441   2.740   5.856
 3120WAT     H1 9382   5.478   2.661   5.815
 3120WAT     H2 9383   5.505   2.808   5.838
 3121WAT      O 9384   5.346   2.683   5.087
 3121WAT     H1 9385   5.373   2.774   5.074
 3121WAT     H2 9386   5.327   2.677   5.180
 3122WAT      O 9387   4.986   1.986   5.216
 3122WAT     H1 9388   5.027   1.967   5.132
 3122WAT     H2 9389   4.955   1.901   5.247
 3123WAT      O 9390   5.336   2.477   5.586
 3123WAT     H1 9391   5.298   2.400   5.543
 3123WAT     H2 9392   5.263   2.515   5.635
 3124WAT      O 9393   3.612   2.227   5.388
 3124WAT     H1 9394   3.522   2.254   5.371
 3124WAT     H2 9395   3.661   2.255   5.310
 3125WAT      O 9396   5.263   2.300   5.916
 3125WAT     H1 9397   5.315   2.250   5.853
 3125WAT     H2 9398   5.322   2.313   5.991
 3126WAT      O 9399   3.866   2.133   5.179
 3126WAT     H1 9400   3.937   2.091   5.131
 3126WAT     H2 9401   3.795   2.140   5.116
 3127WAT      O 9402   3.831   1.739   5.083
 3127WAT     H1 9403   3.903   1.793   5.115
 3127WAT     H2 9404   3.858   1.711   4.996
 3128WAT      O 9405   5.212   2.225   5.510
 3128WAT     H1 9406   5.262   2.202   5.589
 3128WAT     H2 9407   5.192   2.142   5.468
 3129WAT      O 9408   5.355   2.089   5.763
 3129WAT     H1 9409   5.344   2.074   5.857
 3129WAT     H2 9410   5.431   2.036   5.739
 3130WAT      O 9411   5.444   1.872   5.088
 3130WAT     H1 9412   5.536   1.859   5.067
 3130WAT     H2 9413   5.442   1.880   5.183
 3131WAT      O 9414   5.451   1.949   5.350
 3131WAT     H1 9415   5.372   1.943   5.403
 3131WAT     H2 9416   5.472   2.043   5.349
 3132WAT      O 9417   5.145   3.353   5.749
 3132WAT     H1 9418   5.205   3.321   5.682
 3132WAT     H2 9419   5.171   3.306   5.829
 3133WAT      O 9420   5.201   3.418   6.132
 3133WAT     H1 9421   5.155   3.493   6.095
 3133WAT     H2 9422   5.138   3.346   6.127
 3134WAT      O 9423   4.243   3.249   6.050
 3134WAT     H1 9424   4.295   3.188   5.997
 3134WAT     H2 9425   4.308   3.299   6.099
 3135WAT      O 9426   5.094   1.782   5.995
 3135WAT     H1 9427   5.138   1.777   5.910
 3135WAT     H2 9428   5.067   1.874   6.002
 3136WAT      O 9429   5.281   1.745   5.796
 3136WAT     H1 9430   5.275   1.651   5.781
 3136WAT     H2 9431   5.359   1.756   5.851
 3137WAT      O 9432   3.711   3.359   5.692
 3137WAT     H1 9433   3.695   3.296   5.762
 3137WAT     H2 9434   3.625   3.380   5.657
 3138WAT      O 9435   3.774   1.742   5.443
 3138WAT     H1 9436   3.849   1.754   5.385
 3138WAT     H2 9437   3.727   1.826   5.438
 3139WAT      O 9438   4.428   1.954   5.742
 3139WAT     H1 9439   4.346   1.916   5.708
 3139WAT     H2 9440   4.478   1.878   5.772
 3140WAT      O 9441   4.878   1.620   5.866
 3140WAT     H1 9442   4.938   1.677   5.913
 3140WAT     H2 9443   4.804   1.677   5.843
 3141WAT      O 9444   5.192   1.660   5.393
 3141WAT     H1 9445   5.212   1.750   5.420
 3141WAT     H2 9446   5.114   1.637   5.442
 3142WAT      O 9447   3.872   3.229   5.437
 3142WAT     H1 9448   3.819   3.267   5.367
 3142WAT     H2 9449   3.864   3.291   5.509
 3143WAT      O 9450   4.011   1.795   5.297
 3143WAT     H1 9451   4.064   1.716   5.284
 3143WAT     H2 9452   4.074   1.863   5.320
 3144WAT      O 9453   4.230   1.769   5.602
 3144WAT     H1 9454   4.167   1.699   5.619
 3144WAT     H2 9455   4.176   1.845   5.581
 3145WAT      O 9456   5.348   3.384   5.569
 3145WAT     H1 9457   5.365   3.316   5.505
 3145WAT     H2 9458   5.278   3.437   5.530
 3146WAT      O 9459   4.132   3.423   5.324
 3146WAT     H1 9460   4.205   3.395   5.270
 3146WAT     H2 9461   4.158   3.400   5.413
 3147WAT      O 9462   4.048   3.035   5.325
 3147WAT     H1 9463   3.985   3.082   5.380
 3147WAT     H2 9464   4.060   2.951   5.368
 3148WAT      O 9465   4.794   2.440   3.940
 3148WAT     H1 9466   4.785   2.349   3.913
 3148WAT     H2 9467   4.752   2.490   3.869
 3149WAT      O 9468   4.607   2.618   4.128
 3149WAT     H1 9469   4.529   2.570   4.157
 3149WAT     H2 9470   4.672   2.550   4.111
 3150WAT      O 9471   4.008   2.649   4.216
 3150WAT     H1 9472   3.925   2.624   4.256
 3150WAT     H2 9473   4.069   2.656   4.289
 3151WAT      O 9474   5.009   3.059   4.006
 3151WAT     H1 9475   4.963   2.981   4.039
 3151WAT     H2 9476   5.090   3.061   4.057
 3152WAT      O 9477   4.006   3.053   4.235
 3152WAT     H1 9478   4.037   2.964   4.217
 3152WAT     H2 9479   4.081   3.108   4.213
 3153WAT      O 9480   3.849   2.145   3.594
 3153WAT     H1 9481   3.760   2.179   3.584
 3153WAT     H2 9482   3.878   2.125   3.505
 3154WAT      O 9483   3.646   2.405   4.183
 3154WAT     H1 9484   3.703   2.328   4.183
 3154WAT     H2 9485   3.646   2.435   4.092
 3155WAT      O 9486   4.631   3.287   3.968
 3155WAT     H1 9487   4.570   3.333   3.911
 3155WAT     H2 9488   4.717   3.303   3.928
 3156WAT      O 9489   4.551   2.886   4.129
 3156WAT     H1 9490   4.544   2.791   4.113
 3156WAT     H2 9491   4.627   2.895   4.186
 3157WAT      O 9492   3.770   1.946   4.361
 3157WAT     H1 9493   3.752   1.856   4.389
 3157WAT     H2 9494   3.730   2.001   4.429
 3158WAT      O 9495   4.654   2.166   4.151
 3158WAT     H1 9496   4.691   2.079   4.140
 3158WAT     H2 9497   4.644   2.200   4.062
 3159WAT      O 9498   4.067   2.003   3.698
 3159WAT     H1 9499   4.078   2.094   3.728
 3159WAT     H2 9500   3.976   1.999   3.669
 3160WAT      O 9501   5.032   1.916   3.845
 3160WAT     H1 9502   5.114   1.867   3.849
 3160WAT     H2 9503   5.035   1.975   3.920
 3161WAT      O 9504   3.832   2.196   4.222
 3161WAT     H1 9505   3.900   2.222   4.284
 3161WAT     H2 9506   3.800   2.112   4.255
 3162WAT      O 9507   4.251   2.300   4.131
 3162WAT     H1 9508   4.302   2.350   4.195
 3162WAT     H2 9509   4.304   2.223   4.113
 3163WAT      O 9510   5.461   2.117   4.501
 3163WAT     H1 9511   5.391   2.156   4.449
 3163WAT     H2 9512   5.488   2.187   4.561
 3164WAT      O 9513   4.079   1.764   4.557
 3164WAT     H1 9514   4.080   1.816   4.477
 3164WAT     H2 9515   3.996   1.717   4.555
 3165WAT      O 9516   4.718   2.776   3.707
 3165WAT     H1 9517   4.656   2.822   3.651
 3165WAT     H2 9518   4.769   2.845   3.749
 3166WAT      O 9519   4.204   2.728   4.375
 3166WAT     H1 9520   4.171   2.791   4.439
 3166WAT     H2 9521   4.222   2.781   4.297
 3167WAT      O 9522   5.056   2.110   4.122
 3167WAT     H1 9523   4.985   2.139   4.180
 3167WAT     H2 9524   5.092   2.191   4.086
 3168WAT      O 9525   4.047   1.935   4.358
 3168WAT     H1 9526   4.082   2.020   4.329
 3168WAT     H2 9527   3.954   1.950   4.370
 3169WAT      O 9528   4.126   2.925   4.557
 3169WAT     H1 9529   4.187   2.993   4.529
 3169WAT     H2 9530   4.039   2.966   4.548
 3170WAT      O 9531   3.655   2.844   3.445
 3170WAT     H1 9532   3.617   2.893   3.372
 3170WAT     H2 9533   3.681   2.911   3.508
 3171WAT      O 9534   5.217   3.071   4.348
 3171WAT     H1 9535   5.149   3.138   4.347
 3171WAT     H2 9536   5.271   3.091   4.272
 3172WAT      O 9537   5.363   2.054   4.161
 3172WAT     H1 9538   5.268   2.058   4.174
 3172WAT     H2 9539   5.395   2.136   4.200
 3173WAT      O 9540   4.416   1.684   3.991
 3173WAT     H1 9541   4.447   1.629   3.919
 3173WAT     H2 9542   4.323   1.698   3.972
 3174WAT      O 9543   4.971   3.256   4.220
 3174WAT     H1 9544   4.972   3.216   4.133
 3174WAT     H2 9545   4.916   3.333   4.209
 3175WAT      O 9546   5.100   2.928   3.729
 3175WAT     H1 9547   5.089   2.834   3.741
 3175WAT     H2 9548   5.100   2.964   3.817
 3176WAT      O 9549   4.911   2.746   4.352
 3176WAT     H1 9550   4.952   2.725   4.269
 3176WAT     H2 9551   4.983   2.772   4.410
 3177WAT      O 9552   4.655   2.491   3.664
 3177WAT     H1 9553   4.562   2.484   3.687
 3177WAT     H2 9554   4.670   2.585   3.653
 3178WAT      O 9555   4.653   2.118   3.364
 3178WAT     H1 9556   4.559   2.134   3.372
 3178WAT     H2 9557   4.685   2.190   3.309
 3179WAT      O 9558   5.305   2.586   4.362
 3179WAT     H1 9559   5.223   2.593   4.314
 3179WAT     H2 9560   5.365   2.645   4.315
 3180WAT      O 9561   5.058   2.647   3.715
 3180WAT     H1 9562   4.996   2.613   3.650
 3180WAT     H2 9563   5.056   2.583   3.785
 3181WAT      O 9564   5.002   2.265   4.456
 3181WAT     H1 9565   4.961   2.347   4.482
 3181WAT     H2 9566   4.929   2.206   4.437
 3182WAT      O 9567   4.215   2.543   3.942
 3182WAT     H1 9568   4.175   2.472   3.893
 3182WAT     H2 9569   4.224   2.509   4.031
 3183WAT      O 9570   4.262   2.912   4.159
 3183WAT     H1 9571   4.232   2.852   4.091
 3183WAT     H2 9572   4.357   2.916   4.148
 3184WAT      O 9573   4.086   2.221   4.320
 3184WAT     H1 9574   4.142   2.232   4.243
 3184WAT     H2 9575   4.138   2.258   4.392
 3185WAT      O 9576   5.071   3.269   4.525
 3185WAT     H1 9577   5.023   3.350   4.506
 3185WAT     H2 9578   5.002   3.204   4.540
 3186WAT      O 9579   4.171   2.886   4.824
 3186WAT     H1 9580   4.081   2.908   4.849
 3186WAT     H2 9581   4.174   2.898   4.729
 3187WAT      O 9582   4.875   2.571   3.415
 3187WAT     H1 9583   4.919   2.487   3.401
 3187WAT     H2 9584   4.946   2.634   3.424
 3188WAT      O 9585   4.054   2.573   4.681
 3188WAT     H1 9586   4.040   2.660   4.718
 3188WAT     H2 9587   3.966   2.539   4.667
 3189WAT      O 9588   4.686   3.065   3.812
 3189WAT     H1 9589   4.730   3.139   3.771
 3189WAT     H2 9590   4.680   3.089   3.904
 3190WAT      O 9591   4.234   3.167   4.902
 3190WAT     H1 9592   4.231   3.208   4.816
 3190WAT     H2 9593   4.217   3.074   4.886
 3191WAT      O 9594   5.233   1.696   3.247
 3191WAT     H1 9595   5.202   1.705   3.337
 3191WAT     H2 9596   5.309   1.754   3.242
 3192WAT      O 9597   3.885   2.433   3.692
 3192WAT     H1 9598   3.873   2.505   3.631
 3192WAT     H2 9599   3.854   2.356   3.645
 3193WAT      O 9600   5.429   3.245   5.032
 3193WAT     H1 9601   5.476   3.293   5.100
 3193WAT     H2 9602   5.491   3.239   4.959
 3194WAT      O 9603   3.649   2.750   4.273
 3194WAT     H1 9604   3.657   2.763   4.179
 3194WAT     H2 9605   3.710   2.679   4.292
 3195WAT      O 9606   3.774   2.920   3.914
 3195WAT     H1 9607   3.733   2.934   3.829
 3195WAT     H2 9608   3.863   2.892   3.894
 3196WAT      O 9609   5.369   2.965   4.748
 3196WAT     H1 9610   5.382   2.941   4.656
 3196WAT     H2 9611   5.373   2.881   4.795
 3197WAT      O 9612   4.755   3.335   4.605
 3197WAT     H1 9613   4.807   3.326   4.685
 3197WAT     H2 9614   4.671   3.369   4.634
 3198WAT      O 9615   4.953   3.363   3.548
 3198WAT     H1 9616   4.937   3.334   3.638
 3198WAT     H2 9617   4.936   3.286   3.494
 3199WAT      O 9618   4.201   3.341   3.725
 3199WAT     H1 9619   4.183   3.250   3.704
 3199WAT     H2 9620   4.115   3.377   3.749
 3200WAT      O 9621   4.923   3.114   3.404
 3200WAT     H1 9622   4.854   3.114   3.338
 3200WAT     H2 9623   4.997   3.072   3.361
 3201WAT      O 9624   4.880   3.277   3.811
 3201WAT     H1 9625   4.925   3.199   3.843
 3201WAT     H2 9626   4.914   3.348   3.866
 3202WAT      O 9627   5.354   2.170   4.844
 3202WAT     H1 9628   5.293   2.221   4.792
 3202WAT     H2 9629   5.322   2.080   4.839
 3203WAT      O 9630   3.655   2.854   4.527
 3203WAT     H1 9631   3.671   2.807   4.445
 3203WAT     H2 9632   3.701   2.803   4.594
 3204WAT      O 9633   4.132   1.767   4.031
 3204WAT     H1 9634   4.088   1.845   3.998
 3204WAT     H2 9635   4.188   1.799   4.101
 3205WAT      O 9636   4.561   2.054   4.591
 3205WAT     H1 9637   4.514   2.075   4.672
 3205WAT     H2 9638   4.520   1.972   4.561
 3206WAT      O 9639   5.061   2.176   4.704
 3206WAT     H1 9640   4.976   2.146   4.736
 3206WAT     H2 9641   5.045   2.200   4.613
 3207WAT      O 9642   4.770   2.326   4.914
 3207WAT     H1 9643   4.803   2.243   4.880
 3207WAT     H2 9644   4.849   2.378   4.929
 3208WAT      O 9645   4.443   1.729   3.519
 3208WAT     H1 9646   4.381   1.729   3.591
 3208WAT     H2 9647   4.435   1.643   3.479
 3209WAT      O 9648   4.336   1.822   4.217
 3209WAT     H1 9649   4.365   1.912   4.209
 3209WAT     H2 9650   4.390   1.773   4.155
 3210WAT      O 9651   4.111   2.280   3.804
 3210WAT     H1 9652   4.088   2.258   3.894
 3210WAT     H2 9653   4.033   2.323   3.769
 3211WAT      O 9654   4.834   2.280   3.663
 3211WAT     H1 9655   4.774   2.353   3.645
 3211WAT     H2 9656   4.889   2.274   3.585
 3212WAT      O 9657   4.355   2.369   4.870
 3212WAT     H1 9658   4.345   2.275   4.855
 3212WAT     H2 9659   4.439   2.392   4.831
 3213WAT      O 9660   4.695   2.144   3.866
 3213WAT     H1 9661   4.734   2.175   3.785
 3213WAT     H2 9662   4.731   2.056   3.878
 3214WAT      O 9663   3.868   2.011   4.685
 3214WAT     H1 9664   3.829   2.095   4.706
 3214WAT     H2 9665   3.799   1.947   4.705
 3215WAT      O 9666   4.526   2.019   4.992
 3215WAT     H1 9667   4.457   2.000   5.056
 3215WAT     H2 9668   4.600   2.047   5.046
 3216WAT      O 9669   3.598   1.803   4.089
 3216WAT     H1 9670   3.569   1.860   4.160
 3216WAT     H2 9671   3.673   1.755   4.125
 3217WAT      O 9672   3.617   2.197   3.210
 3217WAT     H1 9673   3.609   2.291   3.224
 3217WAT     H2 9674   3.582   2.183   3.122
 3218WAT      O 9675   4.753   2.403   4.276
 3218WAT     H1 9676   4.680   2.454   4.311
 3218WAT     H2 9677   4.713   2.321   4.246
 3219WAT      O 9678   4.397   2.070   4.116
 3219WAT     H1 9679   4.397   2.026   4.032
 3219WAT     H2 9680   4.486   2.103   4.127
 3220WAT      O 9681   3.982   2.059   4.012
 3220WAT     H1 9682   3.948   2.106   4.088
 3220WAT     H2 9683   3.906   2.013   3.976
 3221WAT      O 9684   4.403   2.170   3.416
 3221WAT     H1 9685   4.415   2.166   3.510
 3221WAT     H2 9686   4.365   2.257   3.400
 3222WAT      O 9687   4.799   1.948   4.217
 3222WAT     H1 9688   4.801   1.993   4.302
 3222WAT     H2 9689   4.775   1.858   4.239
 3223WAT      O 9690   4.304   2.402   3.355
 3223WAT     H1 9691   4.248   2.357   3.293
 3223WAT     H2 9692   4.375   2.437   3.302
 3224WAT      O 9693   5.142   1.689   4.801
 3224WAT     H1 9694   5.175   1.616   4.854
 3224WAT     H2 9695   5.146   1.658   4.711
 3225WAT      O 9696   3.812   2.792   4.743
 3225WAT     H1 9697   3.774   2.728   4.803
 3225WAT     H2 9698   3.843   2.862   4.800
 3226WAT      O 9699   4.427   2.476   4.291
 3226WAT     H1 9700   4.464   2.429   4.366
 3226WAT     H2 9701   4.408   2.564   4.325
 3227WAT      O 9702   3.713   1.951   3.904
 3227WAT     H1 9703   3.685   1.914   3.988
 3227WAT     H2 9704   3.707   1.878   3.843
 3228WAT      O 9705   4.206   2.380   4.523
 3228WAT     H1 9706   4.176   2.468   4.545
 3228WAT     H2 9707   4.301   2.386   4.527
 3229WAT      O 9708   4.059   2.801   3.583
 3229WAT     H1 9709   3.981   2.747   3.567
 3229WAT     H2 9710   4.132   2.749   3.549
 3230WAT      O 9711   5.135   2.701   4.162
 3230WAT     H1 9712   5.207   2.750   4.123
 3230WAT     H2 9713   5.115   2.633   4.097
 3231WAT      O 9714   4.681   1.840   3.576
 3231WAT     H1 9715   4.599   1.790   3.569
 3231WAT     H2 9716   4.661   1.924   3.535
 3232WAT      O 9717   4.673   2.708   4.751
 3232WAT     H1 9718   4.666   2.616   4.725
 3232WAT     H2 9719   4.610   2.718   4.822
 3233WAT      O 9720   4.952   2.277   3.406
 3233WAT     H1 9721   5.041   2.308   3.388
 3233WAT     H2 9722   4.949   2.190   3.367
 3234WAT      O 9723   4.063   2.768   3.946
 3234WAT     H1 9724   4.115   2.688   3.941
 3234WAT     H2 9725   4.018   2.762   4.031
 3235WAT      O 9726   4.552   2.895   3.474
 3235WAT     H1 9727   4.586   2.969   3.424
 3235WAT     H2 9728   4.469   2.926   3.510
 3236WAT      O 9729   3.812   2.465   4.638
 3236WAT     H1 9730   3.776   2.531   4.696
 3236WAT     H2 9731   3.782   2.381   4.675
 3237WAT      O 9732   4.132   2.510   4.926
 3237WAT     H1 9733   4.102   2.525   4.836
 3237WAT     H2 9734   4.209   2.454   4.917
 3238WAT      O 9735   4.666   2.990   4.726
 3238WAT     H1 9736   4.667   2.897   4.704
 3238WAT     H2 9737   4.595   2.999   4.790
 3239WAT      O 9738   5.179   2.408   3.353
 3239WAT     H1 9739   5.171   2.452   3.268
 3239WAT     H2 9740   5.251   2.454   3.396
 3240WAT      O 9741   5.287   2.654   4.660
 3240WAT     H1 9742   5.215   2.713   4.641
 3240WAT     H2 9743   5.340   2.653   4.580
 3241WAT      O 9744   5.282   3.094   3.625
 3241WAT     H1 9745   5.218   3.028   3.653
 3241WAT     H2 9746   5.244   3.134   3.548
 3242WAT      O 9747   4.840   2.827   4.010
 3242WAT     H1 9748   4.875   2.767   3.944
 3242WAT     H2 9749   4.752   2.794   4.027
 3243WAT      O 9750   4.449   2.903   3.751
 3243WAT     H1 9751   4.518   2.957   3.789
 3243WAT     H2 9752   4.370   2.957   3.754
 3244WAT      O 9753   3.663   2.464   3.300
 3244WAT     H1 9754   3.750   2.493   3.328
 3244WAT     H2 9755   3.614   2.546   3.289
 3245WAT      O 9756   4.379   2.603   3.712
 3245WAT     H1 9757   4.425   2.684   3.735
 3245WAT     H2 9758   4.344   2.571   3.795
 3246WAT      O 9759   4.609   3.154   4.435
 3246WAT     H1 9760   4.674   3.175   4.503
 3246WAT     H2 9761   4.646   3.078   4.390
 3247WAT      O 9762   3.969   1.638   3.759
 3247WAT     H1 9763   3.956   1.637   3.854
 3247WAT     H2 9764   3.887   1.671   3.724
 3248WAT      O 9765   4.737   2.955   4.307
 3248WAT     H1 9766   4.801   2.884   4.318
 3248WAT     H2 9767   4.789   3.033   4.289
 3249WAT      O 9768   5.121   2.983   3.279
 3249WAT     H1 9769   5.099   2.911   3.338
 3249WAT     H2 9770   5.082   2.958   3.195
 3250WAT      O 9771   4.914   3.034   4.627
 3250WAT     H1 9772   4.948   3.093   4.695
 3250WAT     H2 9773   4.822   3.021   4.650
 3251WAT      O 9774   3.669   1.813   4.705
 3251WAT     H1 9775   3.598   1.833   4.766
 3251WAT     H2 9776   3.711   1.736   4.743
 3252WAT      O 9777   5.079   2.775   3.445
 3252WAT     H1 9778   5.051   2.821   3.524
 3252WAT     H2 9779   5.159   2.729   3.472
 3253WAT      O 9780   3.698   3.212   4.804
 3253WAT     H1 9781   3.709   3.118   4.790
 3253WAT     H2 9782   3.633   3.239   4.739
 3254WAT      O 9783   4.497   3.039   4.944
 3254WAT     H1 9784   4.465   2.967   4.999
 3254WAT     H2 9785   4.430   3.107   4.951
 3255WAT      O 9786   4.301   3.124   3.438
 3255WAT     H1 9787   4.300   3.197   3.377
 3255WAT     H2 9788   4.209   3.099   3.448
 3256WAT      O 9789   3.861   2.646   3.513
 3256WAT     H1 9790   3.800   2.720   3.514
 3256WAT     H2 9791   3.909   2.655   3.430
 3257WAT      O 9792   4.819   2.063   4.480
 3257WAT     H1 9793   4.855   1.981   4.513
 3257WAT     H2 9794   4.732   2.069   4.522
 3258WAT      O 9795   5.155   1.958   3.561
 3258WAT     H1 9796   5.092   1.969   3.490
 3258WAT     H2 9797   5.106   1.980   3.640
 3259WAT      O 9798   4.600   3.130   3.305
 3259WAT     H1 9799   4.610   3.110   3.212
 3259WAT     H2 9800   4.510   3.105   3.325
 3260WAT      O 9801   4.352   2.186   3.703
 3260WAT     H1 9802   4.281   2.233   3.747
 3260WAT     H2 9803   4.380   2.120   3.766
 3261WAT      O 9804   4.515   2.328   4.503
 3261WAT     H1 9805   4.564   2.376   4.569
 3261WAT     H2 9806   4.529   2.236   4.524
 3262WAT      O 9807   4.755   1.859   3.847
 3262WAT     H1 9808   4.743   1.860   3.752
 3262WAT     H2 9809   4.850   1.863   3.859
 3263WAT      O 9810   4.464   3.382   3.774
 3263WAT     H1 9811   4.489   3.378   3.682
 3263WAT     H2 9812   4.369   3.369   3.773
 3264WAT      O 9813   4.172   2.017   3.440
 3264WAT     H1 9814   4.257   2.061   3.434
 3264WAT     H2 9815   4.136   2.048   3.523
 3265WAT      O 9816   5.235   1.950   4.587
 3265WAT     H1 9817   5.185   2.024   4.621
 3265WAT     H2 9818   5.317   1.989   4.555
 3266WAT      O 9819   5.064   2.474   3.932
 3266WAT     H1 9820   4.970   2.476   3.949
 3266WAT     H2 9821   5.096   2.395   3.976
 3267WAT      O 9822   4.062   2.642   3.288
 3267WAT     H1 9823   4.139   2.631   3.344
 3267WAT     H2 9824   4.070   2.573   3.223
 3268WAT      O 9825   3.932   2.386   3.356
 3268WAT     H1 9826   3.940   2.291   3.367
 3268WAT     H2 9827   4.021   2.419   3.367
 3269WAT      O 9828   5.265   3.191   4.099
 3269WAT     H1 9829   5.277   3.273   4.146
 3269WAT     H2 9830   5.351   3.170   4.064
 3270WAT      O 9831   4.012   3.400   4.066
 3270WAT     H1 9832   4.085   3.346   4.093
 3270WAT     H2 9833   4.050   3.487   4.052
 3271WAT      O 9834   3.700   3.007   3.654
 3271WAT     H1 9835   3.608   3.031   3.653
 3271WAT     H2 9836   3.747   3.090   3.642
 3272WAT      O 9837   3.912   3.319   4.985
 3272WAT     H1 9838   3.993   3.351   5.027
 3272WAT     H2 9839   3.861   3.283   5.057
 3273WAT      O 9840   4.323   3.318   3.249
 3273WAT     H1 9841   4.402   3.347   3.203
 3273WAT     H2 9842   4.271   3.275   3.181
 3274WAT      O 9843   4.796   2.930   4.980
 3274WAT     H1 9844   4.735   2.932   4.906
 3274WAT     H2 9845   4.766   2.857   5.034
 3275WAT      O 9846   4.939   3.303   4.841
 3275WAT     H1 9847   5.034   3.294   4.836
 3275WAT     H2 9848   4.924   3.369   4.908
 3276WAT      O 9849   5.228   3.240   3.391
 3276WAT     H1 9850   5.200   3.199   3.310
 3276WAT     H2 9851   5.208   3.333   3.379
 3277WAT      O 9852   3.684   2.568   4.880
 3277WAT     H1 9853   3.735   2.510   4.937
 3277WAT     H2 9854   3.610   2.596   4.933
 3278WAT      O 9855   4.375   2.840   3.235
 3278WAT     H1 9856   4.364   2.778   3.308
 3278WAT     H2 9857   4.358   2.787   3.157
 3279WAT      O 9858   4.390   2.708   4.833
 3279WAT     H1 9859   4.313   2.765   4.825
 3279WAT     H2 9860   4.408   2.679   4.744
 3280WAT      O 9861   4.699   2.746   3.296
 3280WAT     H1 9862   4.644   2.791   3.360
 3280WAT     H2 9863   4.761   2.696   3.348
 3281WAT      O 9864   5.104   2.881   4.889
 3281WAT     H1 9865   5.178   2.915   4.838
 3281WAT     H2 9866   5.028   2.898   4.833
 3282WAT      O 9867   3.888   2.382   4.969
 3282WAT     H1 9868   3.892   2.352   5.060
 3282WAT     H2 9869   3.973   2.422   4.953
 3283WAT      O 9870   4.265   2.642   3.485
 3283WAT     H1 9871   4.308   2.625   3.569
 3283WAT     H2 9872   4.278   2.561   3.436
 3284WAT      O 9873   4.082   2.240   4.766
 3284WAT     H1 9874   4.029   2.191   4.703
 3284WAT     H2 9875   4.149   2.283   4.712
 3285WAT      O 9876   4.517   2.544   3.210
 3285WAT     H1 9877   4.569   2.473   3.173
 3285WAT     H2 9878   4.581   2.608   3.240
 3286WAT      O 9879   4.971   2.687   4.742
 3286WAT     H1 9880   5.013   2.702   4.827
 3286WAT     H2 9881   4.878   2.699   4.759
 3287WAT      O 9882   5.019   2.421   4.943
 3287WAT     H1 9883   5.077   2.345   4.934
 3287WAT     H2 9884   5.036   2.474   4.865
 3288WAT      O 9885   4.130   1.937   4.774
 3288WAT     H1 9886   4.121   1.875   4.701
 3288WAT     H2 9887   4.072   2.009   4.751
 3289WAT      O 9888   4.407   1.792   4.477
 3289WAT     H1 9889   4.362   1.794   4.393
 3289WAT     H2 9890   4.344   1.752   4.537
 3290WAT      O 9891   4.448   2.682   4.539
 3290WAT     H1 9892   4.490   2.766   4.522
 3290WAT     H2 9893   4.356   2.696   4.516
 3291WAT      O 9894   4.681   2.455   4.678
 3291WAT     H1 9895   4.693   2.395   4.752
 3291WAT     H2 9896   4.767   2.459   4.636
 3292WAT      O 9897   4.915   2.510   4.535
 3292WAT     H1 9898   4.862   2.563   4.475
 3292WAT     H2 9899   4.949   2.574   4.598
 3293WAT      O 9900   4.155   2.249   3.180
 3293WAT     H1 9901   4.135   2.163   3.216
 3293WAT     H2 9902   4.138   2.241   3.086
 3294WAT      O 9903   4.233   3.312   4.651
 3294WAT     H1 9904   4.179   3.385   4.619
 3294WAT     H2 9905   4.258   3.265   4.572
 3295WAT      O 9906   4.358   2.109   4.803
 3295WAT     H1 9907   4.417   2.078   4.872
 3295WAT     H2 9908   4.276   2.062   4.819
 3296WAT      O 9909   4.840   2.071   4.827
 3296WAT     H1 9910   4.771   2.005   4.820
 3296WAT     H2 9911   4.912   2.026   4.871
 3297WAT      O 9912   4.903   1.730   3.433
 3297WAT     H1 9913   4.931   1.646   3.468
 3297WAT     H2 9914   4.826   1.754   3.484
 3298WAT      O 9915   4.035   1.959   3.179
 3298WAT     H1 9916   4.065   1.960   3.088
 3298WAT     H2 9917   4.109   1.924   3.228
 3299WAT      O 9918   4.518   3.436   4.677
 3299WAT     H1 9919   4.511   3.526   4.707
 3299WAT     H2 9920   4.428   3.404   4.674
 3300WAT      O 9921   4.357   1.854   3.277
 3300WAT     H1 9922   4.322   1.786   3.219
 3300WAT     H2 9923   4.377   1.807   3.359
 3301WAT      O 9924   4.573   3.352   3.439
 3301WAT     H1 9925   4.663   3.386   3.441
 3301WAT     H2 9926   4.576   3.280   3.376
 3302WAT      O 9927   3.937   2.890   3.262
 3302WAT     H1 9928   3.981   2.944   3.327
 3302WAT     H2 9929   3.986   2.807   3.263
 3303WAT      O 9930   3.659   3.169   4.007
 3303WAT     H1 9931   3.692   3.082   3.984
 3303WAT     H2 9932   3.702   3.189   4.090
 3304WAT      O 9933   4.118   3.002   3.773
 3304WAT     H1 9934   4.088   2.989   3.863
 3304WAT     H2 9935   4.108   2.916   3.732
 3305WAT      O 9936   3.708   3.255   4.281
 3305WAT     H1 9937   3.664   3.273   4.364
 3305WAT     H2 9938   3.764   3.331   4.267
 3306WAT      O 9939   5.271   3.205   4.710
 3306WAT     H1 9940   5.211   3.211   4.635
 3306WAT     H2 9941   5.284   3.111   4.723
 3307WAT      O 9942   5.395   2.980   3.243
 3307WAT     H1 9943   5.312   2.986   3.290
 3307WAT     H2 9944   5.413   3.069   3.213
 3308WAT      O 9945   5.341   2.654   3.494
 3308WAT     H1 9946   5.417   2.711   3.504
 3308WAT     H2 9947   5.342   2.597   3.571
 3309WAT      O 9948   3.691   2.506   3.917
 3309WAT     H1 9949   3.625   2.480   3.852
 3309WAT     H2 9950   3.775   2.496   3.872
 3310WAT      O 9951   5.441   2.740   3.978
 3310WAT     H1 9952   5.478   2.661   3.937
 3310WAT     H2 9953   5.505   2.808   3.960
 3311WAT      O 9954   5.140   2.878   4.519
 3311WAT     H1 9955   5.058   2.921   4.546
 3311WAT     H2 9956   5.180   2.939   4.458
 3312WAT      O 9957   5.346   2.683   3.209
 3312WAT     H1 9958   5.373   2.774   3.197
 3312WAT     H2 9959   5.327   2.677   3.303
 3313WAT      O 9960   4.986   1.986   3.339
 3313WAT     H1 9961   5.027   1.967   3.255
 3313WAT     H2 9962   4.955   1.901   3.370
 3314WAT      O 9963   5.336   2.477   3.709
 3314WAT     H1 9964   5.298   2.400   3.665
 3314WAT     H2 9965   5.263   2.515   3.757
 3315WAT      O 9966   3.795   2.545   4.371
 3315WAT     H1 9967   3.831   2.536   4.459
 3315WAT     H2 9968   3.738   2.469   4.361
 3316WAT      O 9969   5.275   2.392   4.672
 3316WAT     H1 9970   5.251   2.369   4.582
 3316WAT     H2 9971   5.301   2.484   4.668
 3317WAT      O 9972   3.750   2.236   4.761
 3317WAT     H1 9973   3.660   2.233   4.795
 3317WAT     H2 9974   3.804   2.256   4.838
 3318WAT      O 9975   5.118   1.914   4.950
 3318WAT     H1 9976   5.206   1.915   4.988
 3318WAT     H2 9977   5.120   1.841   4.889
 3319WAT      O 9978   3.612   2.227   3.511
 3319WAT     H1 9979   3.522   2.254   3.494
 3319WAT     H2 9980   3.661   2.255   3.433
 3320WAT      O 9981   5.263   2.300   4.039
 3320WAT     H1 9982   5.315   2.250   3.976
 3320WAT     H2 9983   5.322   2.313   4.113
 3321WAT      O 9984   5.281   2.308   4.391
 3321WAT     H1 9985   5.186   2.305   4.402
 3321WAT     H2 9986   5.299   2.399   4.367
 3322WAT      O 9987   3.866   2.133   3.302
 3322WAT     H1 9988   3.937   2.091   3.253
 3322WAT     H2 9989   3.795   2.140   3.239
 3323WAT      O 9990   3.831   1.739   3.206
 3323WAT     H1 9991   3.903   1.793   3.238
 3323WAT     H2 9992   3.858   1.711   3.118
 3324WAT      O 9993   5.212   2.225   3.633
 3324WAT     H1 9994   5.262   2.202   3.711
 3324WAT     H2 9995   5.192   2.142   3.591
 3325WAT      O 9996   3.800   1.664   4.196
 3325WAT     H1 9997   3.865   1.609   4.152
 3325WAT     H2 9998   3.842   1.689   4.278
 3326WAT      O 9999   5.355   2.089   3.886
 3326WAT     H110000   5.344   2.074   3.980
 3326WAT     H210001   5.431   2.036   3.862
 3327WAT      O10002   5.190   1.683   4.532
 3327WAT     H110003   5.253   1.744   4.568
 3327WAT     H210004   5.204   1.687   4.437
 3328WAT      O10005   5.444   1.872   3.210
 3328WAT     H110006   5.536   1.859   3.189
 3328WAT     H210007   5.442   1.880   3.305
 3329WAT      O10008   5.451   1.949   3.473
 3329WAT     H110009   5.372   1.943   3.526
 3329WAT     H210010   5.472   2.043   3.472
 3330WAT      O10011   5.145   3.353   3.872
 3330WAT     H110012   5.205   3.321   3.804
 3330WAT     H210013   5.171   3.306   3.951
 3331WAT      O10014   3.775   1.679   4.470
 3331WAT     H110015   3.741   1.725   4.547
 3331WAT     H210016   3.742   1.590   4.479
 3332WAT      O10017   3.936   2.996   4.887
 3332WAT     H110018   3.932   2.959   4.975
 3332WAT     H210019   3.949   3.090   4.901
 3333WAT      O10020   4.306   3.152   4.447
 3333WAT     H110021   4.282   3.179   4.358
 3333WAT     H210022   4.400   3.169   4.453
 3334WAT      O10023   4.527   1.798   4.823
 3334WAT     H110024   4.521   1.857   4.898
 3334WAT     H210025   4.621   1.788   4.808
 3335WAT      O10026   4.790   1.764   4.787
 3335WAT     H110027   4.852   1.796   4.720
 3335WAT     H210028   4.845   1.715   4.849
 3336WAT      O10029   5.432   3.354   4.527
 3336WAT     H110030   5.383   3.394   4.455
 3336WAT     H210031   5.371   3.291   4.567
 3337WAT      O10032   3.843   1.632   4.798
 3337WAT     H110033   3.897   1.614   4.722
 3337WAT     H210034   3.849   1.553   4.852
 3338WAT      O10035   3.920   3.291   4.599
 3338WAT     H110036   3.861   3.278   4.673
 3338WAT     H210037   3.919   3.207   4.552
 3339WAT      O10038   4.864   1.620   4.419
 3339WAT     H110039   4.777   1.654   4.399
 3339WAT     H210040   4.854   1.573   4.502
 3340WAT      O10041   4.955   1.841   4.558
 3340WAT     H110042   4.922   1.760   4.520
 3340WAT     H210043   5.050   1.837   4.545
 3341WAT      O10044   5.201   3.418   4.255
 3341WAT     H110045   5.155   3.493   4.218
 3341WAT     H210046   5.138   3.346   4.249
 3342WAT      O10047   3.883   3.028   4.494
 3342WAT     H110048   3.810   2.966   4.487
 3342WAT     H210049   3.889   3.067   4.407
 3343WAT      O10050   4.243   3.249   4.173
 3343WAT     H110051   4.295   3.188   4.120
 3343WAT     H210052   4.308   3.299   4.222
 3344WAT      O10053   4.517   3.338   4.255
 3344WAT     H110054   4.546   3.313   4.168
 3344WAT     H210055   4.569   3.283   4.314
 3345WAT      O10056   4.639   1.712   4.313
 3345WAT     H110057   4.561   1.759   4.341
 3345WAT     H210058   4.610   1.622   4.302
 3346WAT      O10059   5.094   1.782   4.118
 3346WAT     H110060   5.138   1.777   4.033
 3346WAT     H210061   5.067   1.874   4.125
 3347WAT      O10062   5.281   1.745   3.919
 3347WAT     H110063   5.275   1.651   3.904
 3347WAT     H210064   5.359   1.756   3.973
 3348WAT      O10065   3.711   3.359   3.815
 3348WAT     H110066   3.695   3.296   3.885
 3348WAT     H210067   3.625   3.380   3.780
 3349WAT      O10068   3.774   1.742   3.565
 3349WAT     H110069   3.849   1.754   3.508
 3349WAT     H210070   3.727   1.826   3.561
 3350WAT      O10071   4.428   1.954   3.864
 3350WAT     H110072   4.346   1.916   3.830
 3350WAT     H210073   4.478   1.878   3.895
 3351WAT      O10074   4.878   1.620   3.988
 3351WAT     H110075   4.938   1.677   4.036
 3351WAT     H210076   4.804   1.677   3.966
 3352WAT      O10077   5.192   1.660   3.516
 3352WAT     H110078   5.212   1.750   3.542
 3352WAT     H210079   5.114   1.637   3.565
 3353WAT      O10080   3.872   3.229   3.559
 3353WAT     H110081   3.819   3.267   3.489
 3353WAT     H210082   3.864   3.291   3.632
 3354WAT      O10083   4.011   1.795   3.419
 3354WAT     H110084   4.064   1.716   3.406
 3354WAT     H210085   4.074   1.863   3.443
 3355WAT      O10086   4.230   1.769   3.725
 3355WAT     H110087   4.167   1.699   3.741
 3355WAT     H210088   4.176   1.845   3.703
 3356WAT      O10089   4.524   3.430   4.992
 3356WAT     H110090   4.617   3.407   4.996
 3356WAT     H210091   4.523   3.513   4.944
 3357WAT      O10092   5.348   3.384   3.692
 3357WAT     H110093   5.365   3.316   3.627
 3357WAT     H210094   5.278   3.437   3.652
 3358WAT      O10095   4.243   1.697   4.968
 3358WAT     H110096   4.215   1.747   4.892
 3358WAT     H210097   4.281   1.617   4.932
 3359WAT      O10098   4.048   3.035   3.447
 3359WAT     H110099   3.985   3.082   3.502
 3359WAT     H210100   4.060   2.951   3.491
 3360WAT      O10101   4.903   1.638   5.026
 3360WAT     H110102   4.892   1.670   5.116
 3360WAT     H210103   4.985   1.678   4.996
 3361WAT      O10104   5.181   3.353   4.974
 3361WAT     H110105   5.260   3.303   4.954
 3361WAT     H210106   5.210   3.421   5.035
 3362WAT      O10107   4.794   2.440   2.062
 3362WAT     H110108   4.785   2.349   2.035
 3362WAT     H210109   4.752   2.490   1.992
 3363WAT      O10110   4.607   2.618   2.251
 3363WAT     H110111   4.529   2.570   2.280
 3363WAT     H210112   4.672   2.550   2.233
 3364WAT      O10113   4.008   2.649   2.338
 3364WAT     H110114   3.925   2.624   2.378
 3364WAT     H210115   4.069   2.656   2.412
 3365WAT      O10116   5.009   3.059   2.129
 3365WAT     H110117   4.963   2.981   2.161
 3365WAT     H210118   5.090   3.061   2.179
 3366WAT      O10119   4.006   3.053   2.358
 3366WAT     H110120   4.037   2.964   2.340
 3366WAT     H210121   4.081   3.108   2.335
 3367WAT      O10122   3.849   2.145   1.717
 3367WAT     H110123   3.760   2.179   1.707
 3367WAT     H210124   3.878   2.125   1.628
 3368WAT      O10125   3.646   2.405   2.305
 3368WAT     H110126   3.703   2.328   2.305
 3368WAT     H210127   3.646   2.435   2.214
 3369WAT      O10128   4.631   3.287   2.091
 3369WAT     H110129   4.570   3.333   2.034
 3369WAT     H210130   4.717   3.303   2.050
 3370WAT      O10131   4.551   2.886   2.251
 3370WAT     H110132   4.544   2.791   2.235
 3370WAT     H210133   4.627   2.895   2.308
 3371WAT      O10134   3.770   1.946   2.484
 3371WAT     H110135   3.752   1.856   2.512
 3371WAT     H210136   3.730   2.001   2.551
 3372WAT      O10137   4.654   2.166   2.274
 3372WAT     H110138   4.691   2.079   2.263
 3372WAT     H210139   4.644   2.200   2.185
 3373WAT      O10140   4.067   2.003   1.820
 3373WAT     H110141   4.078   2.094   1.851
 3373WAT     H210142   3.976   1.999   1.791
 3374WAT      O10143   5.032   1.916   1.967
 3374WAT     H110144   5.114   1.867   1.971
 3374WAT     H210145   5.035   1.975   2.043
 3375WAT      O10146   3.832   2.196   2.345
 3375WAT     H110147   3.900   2.222   2.407
 3375WAT     H210148   3.800   2.112   2.378
 3376WAT      O10149   4.251   2.300   2.253
 3376WAT     H110150   4.302   2.350   2.317
 3376WAT     H210151   4.304   2.223   2.236
 3377WAT      O10152   5.461   2.117   2.624
 3377WAT     H110153   5.391   2.156   2.572
 3377WAT     H210154   5.488   2.187   2.684
 3378WAT      O10155   4.079   1.764   2.680
 3378WAT     H110156   4.080   1.816   2.599
 3378WAT     H210157   3.996   1.717   2.678
 3379WAT      O10158   4.718   2.776   1.830
 3379WAT     H110159   4.656   2.822   1.774
 3379WAT     H210160   4.769   2.845   1.872
 3380WAT      O10161   4.204   2.728   2.498
 3380WAT     H110162   4.171   2.791   2.562
 3380WAT     H210163   4.222   2.781   2.420
 3381WAT      O10164   5.056   2.110   2.245
 3381WAT     H110165   4.985   2.139   2.303
 3381WAT     H210166   5.092   2.191   2.208
 3382WAT      O10167   4.047   1.935   2.481
 3382WAT     H110168   4.082   2.020   2.451
 3382WAT     H210169   3.954   1.950   2.492
 3383WAT      O10170   4.126   2.925   2.679
 3383WAT     H110171   4.187   2.993   2.651
 3383WAT     H210172   4.039   2.966   2.670
 3384WAT      O10173   3.655   2.844   1.567
 3384WAT     H110174   3.617   2.893   1.494
 3384WAT     H210175   3.681   2.911   1.630
 3385WAT      O10176   5.217   3.071   2.471
 3385WAT     H110177   5.149   3.138   2.470
 3385WAT     H210178   5.271   3.091   2.394
 3386WAT      O10179   5.363   2.054   2.284
 3386WAT     H110180   5.268   2.058   2.297
 3386WAT     H210181   5.395   2.136   2.322
 3387WAT      O10182   4.416   1.684   2.113
 3387WAT     H110183   4.447   1.629   2.042
 3387WAT     H210184   4.323   1.698   2.095
 3388WAT      O10185   4.971   3.256   2.342
 3388WAT     H110186   4.972   3.216   2.255
 3388WAT     H210187   4.916   3.333   2.332
 3389WAT      O10188   5.100   2.928   1.851
 3389WAT     H110189   5.089   2.834   1.864
 3389WAT     H210190   5.100   2.964   1.940
 3390WAT      O10191   4.911   2.746   2.475
 3390WAT     H110192   4.952   2.725   2.392
 3390WAT     H210193   4.983   2.772   2.532
 3391WAT      O10194   4.655   2.491   1.787
 3391WAT     H110195   4.562   2.484   1.810
 3391WAT     H210196   4.670   2.585   1.775
 3392WAT      O10197   4.653   2.118   1.486
 3392WAT     H110198   4.559   2.134   1.495
 3392WAT     H210199   4.685   2.190   1.432
 3393WAT      O10200   5.305   2.586   2.484
 3393WAT     H110201   5.223   2.593   2.437
 3393WAT     H210202   5.365   2.645   2.437
 3394WAT      O10203   5.058   2.647   1.837
 3394WAT     H110204   4.996   2.613   1.772
 3394WAT     H210205   5.056   2.583   1.908
 3395WAT      O10206   5.002   2.265   2.579
 3395WAT     H110207   4.961   2.347   2.604
 3395WAT     H210208   4.929   2.206   2.560
 3396WAT      O10209   4.215   2.543   2.065
 3396WAT     H110210   4.175   2.472   2.015
 3396WAT     H210211   4.224   2.509   2.154
 3397WAT      O10212   4.262   2.912   2.281
 3397WAT     H110213   4.232   2.852   2.213
 3397WAT     H210214   4.357   2.916   2.270
 3398WAT      O10215   4.086   2.221   2.443
 3398WAT     H110216   4.142   2.232   2.365
 3398WAT     H210217   4.138   2.258   2.514
 3399WAT      O10218   5.071   3.269   2.648
 3399WAT     H110219   5.023   3.350   2.628
 3399WAT     H210220   5.002   3.204   2.663
 3400WAT      O10221   4.171   2.886   2.946
 3400WAT     H110222   4.081   2.908   2.971
 3400WAT     H210223   4.174   2.898   2.852
 3401WAT      O10224   4.875   2.571   1.538
 3401WAT     H110225   4.919   2.487   1.523
 3401WAT     H210226   4.946   2.634   1.546
 3402WAT      O10227   4.054   2.573   2.804
 3402WAT     H110228   4.040   2.660   2.841
 3402WAT     H210229   3.966   2.539   2.789
 3403WAT      O10230   4.686   3.065   1.935
 3403WAT     H110231   4.730   3.139   1.893
 3403WAT     H210232   4.680   3.089   2.027
 3404WAT      O10233   4.234   3.167   3.025
 3404WAT     H110234   4.231   3.208   2.938
 3404WAT     H210235   4.217   3.074   3.009
 3405WAT      O10236   5.233   1.696   1.369
 3405WAT     H110237   5.202   1.705   1.459
 3405WAT     H210238   5.309   1.754   1.364
 3406WAT      O10239   3.885   2.433   1.815
 3406WAT     H110240   3.873   2.505   1.754
 3406WAT     H210241   3.854   2.356   1.767
 3407WAT      O10242   5.429   3.245   3.154
 3407WAT     H110243   5.476   3.293   3.222
 3407WAT     H210244   5.491   3.239   3.082
 3408WAT      O10245   3.649   2.750   2.396
 3408WAT     H110246   3.657   2.763   2.301
 3408WAT     H210247   3.710   2.679   2.415
 3409WAT      O10248   3.774   2.920   2.037
 3409WAT     H110249   3.733   2.934   1.951
 3409WAT     H210250   3.863   2.892   2.016
 3410WAT      O10251   5.369   2.965   2.870
 3410WAT     H110252   5.382   2.941   2.779
 3410WAT     H210253   5.373   2.881   2.918
 3411WAT      O10254   4.755   3.335   2.727
 3411WAT     H110255   4.807   3.326   2.808
 3411WAT     H210256   4.671   3.369   2.757
 3412WAT      O10257   4.953   3.363   1.670
 3412WAT     H110258   4.937   3.334   1.760
 3412WAT     H210259   4.936   3.286   1.617
 3413WAT      O10260   4.201   3.341   1.848
 3413WAT     H110261   4.183   3.250   1.827
 3413WAT     H210262   4.115   3.377   1.872
 3414WAT      O10263   4.923   3.114   1.526
 3414WAT     H110264   4.854   3.114   1.460
 3414WAT     H210265   4.997   3.072   1.483
 3415WAT      O10266   4.880   3.277   1.934
 3415WAT     H110267   4.925   3.199   1.965
 3415WAT     H210268   4.914   3.348   1.988
 3416WAT      O10269   5.354   2.170   2.967
 3416WAT     H110270   5.293   2.221   2.914
 3416WAT     H210271   5.322   2.080   2.961
 3417WAT      O10272   3.655   2.854   2.650
 3417WAT     H110273   3.671   2.807   2.568
 3417WAT     H210274   3.701   2.803   2.716
 3418WAT      O10275   4.132   1.767   2.153
 3418WAT     H110276   4.088   1.845   2.120
 3418WAT     H210277   4.188   1.799   2.224
 3419WAT      O10278   4.561   2.054   2.714
 3419WAT     H110279   4.514   2.075   2.795
 3419WAT     H210280   4.520   1.972   2.683
 3420WAT      O10281   5.061   2.176   2.827
 3420WAT     H110282   4.976   2.146   2.859
 3420WAT     H210283   5.045   2.200   2.735
 3421WAT      O10284   4.770   2.326   3.037
 3421WAT     H110285   4.803   2.243   3.003
 3421WAT     H210286   4.849   2.378   3.051
 3422WAT      O10287   4.443   1.729   1.641
 3422WAT     H110288   4.381   1.729   1.714
 3422WAT     H210289   4.435   1.643   1.602
 3423WAT      O10290   4.336   1.822   2.339
 3423WAT     H110291   4.365   1.912   2.331
 3423WAT     H210292   4.390   1.773   2.278
 3424WAT      O10293   4.111   2.280   1.926
 3424WAT     H110294   4.088   2.258   2.017
 3424WAT     H210295   4.033   2.323   1.892
 3425WAT      O10296   4.834   2.280   1.786
 3425WAT     H110297   4.774   2.353   1.768
 3425WAT     H210298   4.889   2.274   1.708
 3426WAT      O10299   4.355   2.369   2.993
 3426WAT     H110300   4.345   2.275   2.978
 3426WAT     H210301   4.439   2.392   2.953
 3427WAT      O10302   4.695   2.144   1.989
 3427WAT     H110303   4.734   2.175   1.908
 3427WAT     H210304   4.731   2.056   2.000
 3428WAT      O10305   3.868   2.011   2.808
 3428WAT     H110306   3.829   2.095   2.829
 3428WAT     H210307   3.799   1.947   2.827
 3429WAT      O10308   4.526   2.019   3.115
 3429WAT     H110309   4.457   2.000   3.178
 3429WAT     H210310   4.600   2.047   3.168
 3430WAT      O10311   3.598   1.803   2.211
 3430WAT     H110312   3.569   1.860   2.283
 3430WAT     H210313   3.673   1.755   2.248
 3431WAT      O10314   3.617   2.197   1.332
 3431WAT     H110315   3.609   2.291   1.346
 3431WAT     H210316   3.582   2.183   1.244
 3432WAT      O10317   4.753   2.403   2.399
 3432WAT     H110318   4.680   2.454   2.433
 3432WAT     H210319   4.713   2.321   2.368
 3433WAT      O10320   4.397   2.070   2.239
 3433WAT     H110321   4.397   2.026   2.154
 3433WAT     H210322   4.486   2.103   2.250
 3434WAT      O10323   3.982   2.059   2.135
 3434WAT     H110324   3.948   2.106   2.211
 3434WAT     H210325   3.906   2.013   2.099
 3435WAT      O10326   4.403   2.170   1.538
 3435WAT     H110327   4.415   2.166   1.633
 3435WAT     H210328   4.365   2.257   1.523
 3436WAT      O10329   4.799   1.948   2.340
 3436WAT     H110330   4.801   1.993   2.424
 3436WAT     H210331   4.775   1.858   2.361
 3437WAT      O10332   4.304   2.402   1.478
 3437WAT     H110333   4.248   2.357   1.415
 3437WAT     H210334   4.375   2.437   1.425
 3438WAT      O10335   5.142   1.689   2.924
 3438WAT     H110336   5.175   1.616   2.976
 3438WAT     H210337   5.146   1.658   2.833
 3439WAT      O10338   3.812   2.792   2.866
 3439WAT     H110339   3.774   2.728   2.925
 3439WAT     H210340   3.843   2.862   2.923
 3440WAT      O10341   4.427   2.476   2.414
 3440WAT     H110342   4.464   2.429   2.488
 3440WAT     H210343   4.408   2.564   2.448
 3441WAT      O10344   3.713   1.951   2.027
 3441WAT     H110345   3.685   1.914   2.110
 3441WAT     H210346   3.707   1.878   1.965
 3442WAT      O10347   4.206   2.380   2.646
 3442WAT     H110348   4.176   2.468   2.668
 3442WAT     H210349   4.301   2.386   2.649
 3443WAT      O10350   4.059   2.801   1.705
 3443WAT     H110351   3.981   2.747   1.689
 3443WAT     H210352   4.132   2.749   1.671
 3444WAT      O10353   5.135   2.701   2.284
 3444WAT     H110354   5.207   2.750   2.245
 3444WAT     H210355   5.115   2.633   2.220
 3445WAT      O10356   4.681   1.840   1.699
 3445WAT     H110357   4.599   1.790   1.691
 3445WAT     H210358   4.661   1.924   1.657
 3446WAT      O10359   4.673   2.708   2.873
 3446WAT     H110360   4.666   2.616   2.848
 3446WAT     H210361   4.610   2.718   2.945
 3447WAT      O10362   4.952   2.277   1.528
 3447WAT     H110363   5.041   2.308   1.511
 3447WAT     H210364   4.949   2.190   1.489
 3448WAT      O10365   4.063   2.768   2.069
 3448WAT     H110366   4.115   2.688   2.064
 3448WAT     H210367   4.018   2.762   2.153
 3449WAT      O10368   4.552   2.895   1.596
 3449WAT     H110369   4.586   2.969   1.547
 3449WAT     H210370   4.469   2.926   1.633
 3450WAT      O10371   3.812   2.465   2.760
 3450WAT     H110372   3.776   2.531   2.819
 3450WAT     H210373   3.782   2.381   2.797
 3451WAT      O10374   4.132   2.510   3.049
 3451WAT     H110375   4.102   2.525   2.959
 3451WAT     H210376   4.209   2.454   3.039
 3452WAT      O10377   4.666   2.990   2.848
 3452WAT     H110378   4.667   2.897   2.826
 3452WAT     H210379   4.595   2.999   2.912
 3453WAT      O10380   5.179   2.408   1.475
 3453WAT     H110381   5.171   2.452   1.390
 3453WAT     H210382   5.251   2.454   1.518
 3454WAT      O10383   5.287   2.654   2.783
 3454WAT     H110384   5.215   2.713   2.763
 3454WAT     H210385   5.340   2.653   2.703
 3455WAT      O10386   5.282   3.094   1.748
 3455WAT     H110387   5.218   3.028   1.775
 3455WAT     H210388   5.244   3.134   1.670
 3456WAT      O10389   4.840   2.827   2.133
 3456WAT     H110390   4.875   2.767   2.067
 3456WAT     H210391   4.752   2.794   2.150
 3457WAT      O10392   4.449   2.903   1.873
 3457WAT     H110393   4.518   2.957   1.912
 3457WAT     H210394   4.370   2.957   1.877
 3458WAT      O10395   3.663   2.464   1.423
 3458WAT     H110396   3.750   2.493   1.451
 3458WAT     H210397   3.614   2.546   1.411
 3459WAT      O10398   4.379   2.603   1.835
 3459WAT     H110399   4.425   2.684   1.857
 3459WAT     H210400   4.344   2.571   1.918
 3460WAT      O10401   4.609   3.154   2.558
 3460WAT     H110402   4.674   3.175   2.625
 3460WAT     H210403   4.646   3.078   2.512
 3461WAT      O10404   3.969   1.638   1.882
 3461WAT     H110405   3.956   1.637   1.977
 3461WAT     H210406   3.887   1.671   1.847
 3462WAT      O10407   4.737   2.955   2.429
 3462WAT     H110408   4.801   2.884   2.441
 3462WAT     H210409   4.789   3.033   2.411
 3463WAT      O10410   5.121   2.983   1.402
 3463WAT     H110411   5.099   2.911   1.461
 3463WAT     H210412   5.082   2.958   1.318
 3464WAT      O10413   4.914   3.034   2.750
 3464WAT     H110414   4.948   3.093   2.818
 3464WAT     H210415   4.822   3.021   2.773
 3465WAT      O10416   3.699   3.386   1.479
 3465WAT     H110417   3.735   3.446   1.414
 3465WAT     H210418   3.685   3.440   1.557
 3466WAT      O10419   3.669   1.813   2.828
 3466WAT     H110420   3.598   1.833   2.888
 3466WAT     H210421   3.711   1.736   2.865
 3467WAT      O10422   5.079   2.775   1.568
 3467WAT     H110423   5.051   2.821   1.647
 3467WAT     H210424   5.159   2.729   1.595
 3468WAT      O10425   4.497   3.039   3.067
 3468WAT     H110426   4.465   2.967   3.121
 3468WAT     H210427   4.430   3.107   3.074
 3469WAT      O10428   4.301   3.124   1.561
 3469WAT     H110429   4.300   3.197   1.499
 3469WAT     H210430   4.209   3.099   1.570
 3470WAT      O10431   3.861   2.646   1.635
 3470WAT     H110432   3.800   2.720   1.636
 3470WAT     H210433   3.909   2.655   1.553
 3471WAT      O10434   4.819   2.063   2.603
 3471WAT     H110435   4.855   1.981   2.636
 3471WAT     H210436   4.732   2.069   2.645
 3472WAT      O10437   5.155   1.958   1.684
 3472WAT     H110438   5.092   1.969   1.612
 3472WAT     H210439   5.106   1.980   1.763
 3473WAT      O10440   4.600   3.130   1.427
 3473WAT     H110441   4.610   3.110   1.334
 3473WAT     H210442   4.510   3.105   1.448
 3474WAT      O10443   4.352   2.186   1.825
 3474WAT     H110444   4.281   2.233   1.870
 3474WAT     H210445   4.380   2.120   1.889
 3475WAT      O10446   4.515   2.328   2.625
 3475WAT     H110447   4.564   2.376   2.692
 3475WAT     H210448   4.529   2.236   2.646
 3476WAT      O10449   4.755   1.859   1.969
 3476WAT     H110450   4.743   1.860   1.874
 3476WAT     H210451   4.850   1.863   1.981
 3477WAT      O10452   4.464   3.382   1.897
 3477WAT     H110453   4.489   3.378   1.804
 3477WAT     H210454   4.369   3.369   1.896
 3478WAT      O10455   4.172   2.017   1.563
 3478WAT     H110456   4.257   2.061   1.556
 3478WAT     H210457   4.136   2.048   1.646
 3479WAT      O10458   5.235   1.950   2.710
 3479WAT     H110459   5.185   2.024   2.744
 3479WAT     H210460   5.317   1.989   2.678
 3480WAT      O10461   5.064   2.474   2.054
 3480WAT     H110462   4.970   2.476   2.072
 3480WAT     H210463   5.096   2.395   2.099
 3481WAT      O10464   4.062   2.642   1.410
 3481WAT     H110465   4.139   2.631   1.467
 3481WAT     H210466   4.070   2.573   1.345
 3482WAT      O10467   3.932   2.386   1.479
 3482WAT     H110468   3.940   2.291   1.490
 3482WAT     H210469   4.021   2.419   1.489
 3483WAT      O10470   5.265   3.191   2.222
 3483WAT     H110471   5.277   3.273   2.269
 3483WAT     H210472   5.351   3.170   2.187
 3484WAT      O10473   4.012   3.400   2.189
 3484WAT     H110474   4.085   3.346   2.216
 3484WAT     H210475   4.050   3.487   2.175
 3485WAT      O10476   3.700   3.007   1.776
 3485WAT     H110477   3.608   3.031   1.775
 3485WAT     H210478   3.747   3.090   1.764
 3486WAT      O10479   4.323   3.318   1.371
 3486WAT     H110480   4.402   3.347   1.326
 3486WAT     H210481   4.271   3.275   1.303
 3487WAT      O10482   4.796   2.930   3.103
 3487WAT     H110483   4.735   2.932   3.029
 3487WAT     H210484   4.766   2.857   3.156
 3488WAT      O10485   4.939   3.303   2.964
 3488WAT     H110486   5.034   3.294   2.959
 3488WAT     H210487   4.924   3.369   3.031
 3489WAT      O10488   5.228   3.240   1.514
 3489WAT     H110489   5.200   3.199   1.432
 3489WAT     H210490   5.208   3.333   1.502
 3490WAT      O10491   3.684   2.568   3.002
 3490WAT     H110492   3.735   2.510   3.059
 3490WAT     H210493   3.610   2.596   3.056
 3491WAT      O10494   4.375   2.840   1.358
 3491WAT     H110495   4.364   2.778   1.430
 3491WAT     H210496   4.358   2.787   1.279
 3492WAT      O10497   4.390   2.708   2.956
 3492WAT     H110498   4.313   2.765   2.947
 3492WAT     H210499   4.408   2.679   2.866
 3493WAT      O10500   4.699   2.746   1.418
 3493WAT     H110501   4.644   2.791   1.483
 3493WAT     H210502   4.761   2.696   1.470
 3494WAT      O10503   5.104   2.881   3.011
 3494WAT     H110504   5.178   2.915   2.961
 3494WAT     H210505   5.028   2.898   2.956
 3495WAT      O10506   3.888   2.382   3.092
 3495WAT     H110507   3.892   2.352   3.183
 3495WAT     H210508   3.973   2.422   3.076
 3496WAT      O10509   4.265   2.642   1.608
 3496WAT     H110510   4.308   2.625   1.692
 3496WAT     H210511   4.278   2.561   1.558
 3497WAT      O10512   4.082   2.240   2.888
 3497WAT     H110513   4.029   2.191   2.826
 3497WAT     H210514   4.149   2.283   2.835
 3498WAT      O10515   4.517   2.544   1.333
 3498WAT     H110516   4.569   2.473   1.296
 3498WAT     H210517   4.581   2.608   1.363
 3499WAT      O10518   4.971   2.687   2.865
 3499WAT     H110519   5.013   2.702   2.950
 3499WAT     H210520   4.878   2.699   2.881
 3500WAT      O10521   5.019   2.421   3.065
 3500WAT     H110522   5.077   2.345   3.056
 3500WAT     H210523   5.036   2.474   2.988
 3501WAT      O10524   4.130   1.937   2.896
 3501WAT     H110525   4.121   1.875   2.824
 3501WAT     H210526   4.072   2.009   2.874
 3502WAT      O10527   4.407   1.792   2.600
 3502WAT     H110528   4.362   1.794   2.515
 3502WAT     H210529   4.344   1.752   2.659
 3503WAT      O10530   4.448   2.682   2.662
 3503WAT     H110531   4.490   2.766   2.645
 3503WAT     H210532   4.356   2.696   2.639
 3504WAT      O10533   4.681   2.455   2.800
 3504WAT     H110534   4.693   2.395   2.874
 3504WAT     H210535   4.767   2.459   2.758
 3505WAT      O10536   4.915   2.510   2.658
 3505WAT     H110537   4.862   2.563   2.597
 3505WAT     H210538   4.949   2.574   2.721
 3506WAT      O10539   4.155   2.249   1.302
 3506WAT     H110540   4.135   2.163   1.338
 3506WAT     H210541   4.138   2.241   1.209
 3507WAT      O10542   4.233   3.312   2.773
 3507WAT     H110543   4.179   3.385   2.741
 3507WAT     H210544   4.258   3.265   2.694
 3508WAT      O10545   4.358   2.109   2.926
 3508WAT     H110546   4.417   2.078   2.995
 3508WAT     H210547   4.276   2.062   2.942
 3509WAT      O10548   4.840   2.071   2.949
 3509WAT     H110549   4.771   2.005   2.943
 3509WAT     H210550   4.912   2.026   2.994
 3510WAT      O10551   4.903   1.730   1.555
 3510WAT     H110552   4.931   1.646   1.591
 3510WAT     H210553   4.826   1.754   1.607
 3511WAT      O10554   4.035   1.959   1.301
 3511WAT     H110555   4.065   1.960   1.210
 3511WAT     H210556   4.109   1.924   1.351
 3512WAT      O10557   4.518   3.436   2.799
 3512WAT     H110558   4.511   3.526   2.830
 3512WAT     H210559   4.428   3.404   2.796
 3513WAT      O10560   4.357   1.854   1.400
 3513WAT     H110561   4.322   1.786   1.342
 3513WAT     H210562   4.377   1.807   1.481
 3514WAT      O10563   4.573   3.352   1.562
 3514WAT     H110564   4.663   3.386   1.564
 3514WAT     H210565   4.576   3.280   1.499
 3515WAT      O10566   3.937   2.890   1.384
 3515WAT     H110567   3.981   2.944   1.450
 3515WAT     H210568   3.986   2.807   1.385
 3516WAT      O10569   3.659   3.169   2.130
 3516WAT     H110570   3.692   3.082   2.106
 3516WAT     H210571   3.702   3.189   2.213
 3517WAT      O10572   4.118   3.002   1.896
 3517WAT     H110573   4.088   2.989   1.986
 3517WAT     H210574   4.108   2.916   1.855
 3518WAT      O10575   3.708   3.255   2.403
 3518WAT     H110576   3.664   3.273   2.487
 3518WAT     H210577   3.764   3.331   2.389
 3519WAT      O10578   5.271   3.205   2.832
 3519WAT     H110579   5.211   3.211   2.758
 3519WAT     H210580   5.284   3.111   2.845
 3520WAT      O10581   5.395   2.980   1.366
 3520WAT     H110582   5.312   2.986   1.413
 3520WAT     H210583   5.413   3.069   1.336
 3521WAT      O10584   5.341   2.654   1.616
 3521WAT     H110585   5.417   2.711   1.627
 3521WAT     H210586   5.342   2.597   1.693
 3522WAT      O10587   3.691   2.506   2.039
 3522WAT     H110588   3.625   2.480   1.975
 3522WAT     H210589   3.775   2.496   1.994
 3523WAT      O10590   5.441   2.740   2.101
 3523WAT     H110591   5.478   2.661   2.060
 3523WAT     H210592   5.505   2.808   2.083
 3524WAT      O10593   5.140   2.878   2.642
 3524WAT     H110594   5.058   2.921   2.668
 3524WAT     H210595   5.180   2.939   2.581
 3525WAT      O10596   5.346   2.683   1.332
 3525WAT     H110597   5.373   2.774   1.319
 3525WAT     H210598   5.327   2.677   1.426
 3526WAT      O10599   4.986   1.986   1.461
 3526WAT     H110600   5.027   1.967   1.377
 3526WAT     H210601   4.955   1.901   1.493
 3527WAT      O10602   5.336   2.477   1.831
 3527WAT     H110603   5.298   2.400   1.788
 3527WAT     H210604   5.263   2.515   1.880
 3528WAT      O10605   3.795   2.545   2.493
 3528WAT     H110606   3.831   2.536   2.581
 3528WAT     H210607   3.738   2.469   2.483
 3529WAT      O10608   5.275   2.392   2.795
 3529WAT     H110609   5.251   2.369   2.705
 3529WAT     H210610   5.301   2.484   2.790
 3530WAT      O10611   3.750   2.236   2.884
 3530WAT     H110612   3.660   2.233   2.918
 3530WAT     H210613   3.804   2.256   2.960
 3531WAT      O10614   5.118   1.914   3.072
 3531WAT     H110615   5.206   1.915   3.111
 3531WAT     H210616   5.120   1.841   3.011
 3532WAT      O10617   3.612   2.227   1.634
 3532WAT     H110618   3.522   2.254   1.616
 3532WAT     H210619   3.661   2.255   1.556
 3533WAT      O10620   5.263   2.300   2.161
 3533WAT     H110621   5.315   2.250   2.098
 3533WAT     H210622   5.322   2.313   2.236
 3534WAT      O10623   5.281   2.308   2.514
 3534WAT     H110624   5.186   2.305   2.525
 3534WAT     H210625   5.299   2.399   2.490
 3535WAT      O10626   3.866   2.133   1.424
 3535WAT     H110627   3.937   2.091   1.376
 3535WAT     H210628   3.795   2.140   1.361
 3536WAT      O10629   3.831   1.739   1.329
 3536WAT     H110630   3.903   1.793   1.360
 3536WAT     H210631   3.858   1.711   1.241
 3537WAT      O10632   5.212   2.225   1.755
 3537WAT     H110633   5.262   2.202   1.834
 3537WAT     H210634   5.192   2.142   1.714
 3538WAT      O10635   3.800   1.664   2.319
 3538WAT     H110636   3.865   1.609   2.275
 3538WAT     H210637   3.842   1.689   2.401
 3539WAT      O10638   5.355   2.089   2.009
 3539WAT     H110639   5.344   2.074   2.102
 3539WAT     H210640   5.431   2.036   1.984
 3540WAT      O10641   5.190   1.683   2.654
 3540WAT     H110642   5.253   1.744   2.691
 3540WAT     H210643   5.204   1.687   2.560
 3541WAT      O10644   5.444   1.872   1.333
 3541WAT     H110645   5.536   1.859   1.312
 3541WAT     H210646   5.442   1.880   1.428
 3542WAT      O10647   5.451   1.949   1.595
 3542WAT     H110648   5.372   1.943   1.648
 3542WAT     H210649   5.472   2.043   1.594
 3543WAT      O10650   5.145   3.353   1.995
 3543WAT     H110651   5.205   3.321   1.927
 3543WAT     H210652   5.171   3.306   2.074
 3544WAT      O10653   3.775   1.679   2.593
 3544WAT     H110654   3.741   1.725   2.670
 3544WAT     H210655   3.742   1.590   2.601
 3545WAT      O10656   4.306   3.152   2.570
 3545WAT     H110657   4.282   3.179   2.481
 3545WAT     H210658   4.400   3.169   2.575
 3546WAT      O10659   4.527   1.798   2.945
 3546WAT     H110660   4.521   1.857   3.020
 3546WAT     H210661   4.621   1.788   2.931
 3547WAT      O10662   4.790   1.764   2.909
 3547WAT     H110663   4.852   1.796   2.843
 3547WAT     H210664   4.845   1.715   2.971
 3548WAT      O10665   5.432   3.354   2.650
 3548WAT     H110666   5.383   3.394   2.578
 3548WAT     H210667   5.371   3.291   2.689
 3549WAT      O10668   3.843   1.632   2.921
 3549WAT     H110669   3.897   1.614   2.844
 3549WAT     H210670   3.849   1.553   2.974
 3550WAT      O10671   3.920   3.291   2.722
 3550WAT     H110672   3.861   3.278   2.795
 3550WAT     H210673   3.919   3.207   2.675
 3551WAT      O10674   4.864   1.620   2.542
 3551WAT     H110675   4.777   1.654   2.522
 3551WAT     H210676   4.854   1.573   2.624
 3552WAT      O10677   4.955   1.841   2.680
 3552WAT     H110678   4.922   1.760   2.642
 3552WAT     H210679   5.050   1.837   2.668
 3553WAT      O10680   5.201   3.418   2.378
 3553WAT     H110681   5.155   3.493   2.340
 3553WAT     H210682   5.138   3.346   2.372
 3554WAT      O10683   3.883   3.028   2.617
 3554WAT     H110684   3.810   2.966   2.610
 3554WAT     H210685   3.889   3.067   2.530
 3555WAT      O10686   4.243   3.249   2.295
 3555WAT     H110687   4.295   3.188   2.243
 3555WAT     H210688   4.308   3.299   2.344
 3556WAT      O10689   4.517   3.338   2.378
 3556WAT     H110690   4.546   3.313   2.290
 3556WAT     H210691   4.569   3.283   2.437
 3557WAT      O10692   4.639   1.712   2.436
 3557WAT     H110693   4.561   1.759   2.464
 3557WAT     H210694   4.610   1.622   2.425
 3558WAT      O10695   5.094   1.782   2.240
 3558WAT     H110696   5.138   1.777   2.155
 3558WAT     H210697   5.067   1.874   2.247
 3559WAT      O10698   5.281   1.745   2.041
 3559WAT     H110699   5.275   1.651   2.027
 3559WAT     H210700   5.359   1.756   2.096
 3560WAT      O10701   3.711   3.359   1.938
 3560WAT     H110702   3.695   3.296   2.007
 3560WAT     H210703   3.625   3.380   1.902
 3561WAT      O10704   3.774   1.742   1.688
 3561WAT     H110705   3.849   1.754   1.631
 3561WAT     H210706   3.727   1.826   1.683
 3562WAT      O10707   4.428   1.954   1.987
 3562WAT     H110708   4.346   1.916   1.953
 3562WAT     H210709   4.478   1.878   2.017
 3563WAT      O10710   4.878   1.620   2.111
 3563WAT     H110711   4.938   1.677   2.158
 3563WAT     H210712   4.804   1.677   2.088
 3564WAT      O10713   5.192   1.660   1.638
 3564WAT     H110714   5.212   1.750   1.665
 3564WAT     H210715   5.114   1.637   1.687
 3565WAT      O10716   3.872   3.229   1.682
 3565WAT     H110717   3.819   3.267   1.612
 3565WAT     H210718   3.864   3.291   1.754
 3566WAT      O10719   4.011   1.795   1.542
 3566WAT     H110720   4.064   1.716   1.529
 3566WAT     H210721   4.074   1.863   1.565
 3567WAT      O10722   4.230   1.769   1.847
 3567WAT     H110723   4.167   1.699   1.864
 3567WAT     H210724   4.176   1.845   1.826
 3568WAT      O10725   4.524   3.430   3.114
 3568WAT     H110726   4.617   3.407   3.119
 3568WAT     H210727   4.523   3.513   3.066
 3569WAT      O10728   5.348   3.384   1.814
 3569WAT     H110729   5.365   3.316   1.750
 3569WAT     H210730   5.278   3.437   1.775
 3570WAT      O10731   4.243   1.697   3.091
 3570WAT     H110732   4.215   1.747   3.014
 3570WAT     H210733   4.281   1.617   3.054
 3571WAT      O10734   4.132   3.423   1.570
 3571WAT     H110735   4.205   3.395   1.515
 3571WAT     H210736   4.158   3.400   1.659
 3572WAT      O10737   4.048   3.035   1.570
 3572WAT     H110738   3.985   3.082   1.625
 3572WAT     H210739   4.060   2.951   1.613
 3573WAT      O10740   4.903   1.638   3.149
 3573WAT     H110741   4.892   1.670   3.238
 3573WAT     H210742   4.985   1.678   3.119
 3574WAT      O10743   5.181   3.353   3.097
 3574WAT     H110744   5.260   3.303   3.076
 3574WAT     H210745   5.210   3.421   3.158
 3575WAT      O10746   4.607   2.618   0.373
 3575WAT     H110747   4.529   2.570   0.402
 3575WAT     H210748   4.672   2.550   0.356
 3576WAT      O10749   4.008   2.649   0.461
 3576WAT     H110750   3.925   2.624   0.501
 3576WAT     H210751   4.069   2.656   0.534
 3577WAT      O10752   5.009   3.059   0.251
 3577WAT     H110753   4.963   2.981   0.284
 3577WAT     H210754   5.090   3.061   0.302
 3578WAT      O10755   4.006   3.053   0.480
 3578WAT     H110756   4.037   2.964   0.463
 3578WAT     H210757   4.081   3.108   0.458
 3579WAT      O10758   3.646   2.405   0.428
 3579WAT     H110759   3.703   2.328   0.428
 3579WAT     H210760   3.646   2.435   0.337
 3580WAT      O10761   4.551   2.886   0.374
 3580WAT     H110762   4.544   2.791   0.358
 3580WAT     H210763   4.627   2.895   0.431
 3581WAT      O10764   3.770   1.946   0.606
 3581WAT     H110765   3.752   1.856   0.634
 3581WAT     H210766   3.730   2.001   0.674
 3582WAT      O10767   4.654   2.166   0.397
 3582WAT     H110768   4.691   2.079   0.385
 3582WAT     H210769   4.644   2.200   0.307
 3583WAT      O10770   3.832   2.196   0.467
 3583WAT     H110771   3.900   2.222   0.529
 3583WAT     H210772   3.800   2.112   0.501
 3584WAT      O10773   4.251   2.300   0.376
 3584WAT     H110774   4.302   2.350   0.440
 3584WAT     H210775   4.304   2.223   0.358
 3585WAT      O10776   5.461   2.117   0.746
 3585WAT     H110777   5.391   2.156   0.694
 3585WAT     H210778   5.488   2.187   0.806
 3586WAT      O10779   4.079   1.764   0.803
 3586WAT     H110780   4.080   1.816   0.722
 3586WAT     H210781   3.996   1.717   0.800
 3587WAT      O10782   4.204   2.728   0.620
 3587WAT     H110783   4.171   2.791   0.685
 3587WAT     H210784   4.222   2.781   0.542
 3588WAT      O10785   5.056   2.110   0.367
 3588WAT     H110786   4.985   2.139   0.425
 3588WAT     H210787   5.092   2.191   0.331
 3589WAT      O10788   4.047   1.935   0.603
 3589WAT     H110789   4.082   2.020   0.574
 3589WAT     H210790   3.954   1.950   0.615
 3590WAT      O10791   4.126   2.925   0.802
 3590WAT     H110792   4.187   2.993   0.774
 3590WAT     H210793   4.039   2.966   0.793
 3591WAT      O10794   5.217   3.071   0.593
 3591WAT     H110795   5.149   3.138   0.593
 3591WAT     H210796   5.271   3.091   0.517
 3592WAT      O10797   5.363   2.054   0.406
 3592WAT     H110798   5.268   2.058   0.419
 3592WAT     H210799   5.395   2.136   0.445
 3593WAT      O10800   4.971   3.256   0.465
 3593WAT     H110801   4.972   3.216   0.378
 3593WAT     H210802   4.916   3.333   0.454
 3594WAT      O10803   4.911   2.746   0.598
 3594WAT     H110804   4.952   2.725   0.514
 3594WAT     H210805   4.983   2.772   0.655
 3595WAT      O10806   5.305   2.586   0.607
 3595WAT     H110807   5.223   2.593   0.559
 3595WAT     H210808   5.365   2.645   0.560
 3596WAT      O10809   5.002   2.265   0.701
 3596WAT     H110810   4.961   2.347   0.727
 3596WAT     H210811   4.929   2.206   0.682
 3597WAT      O10812   4.262   2.912   0.404
 3597WAT     H110813   4.232   2.852   0.336
 3597WAT     H210814   4.357   2.916   0.393
 3598WAT      O10815   4.086   2.221   0.566
 3598WAT     H110816   4.142   2.232   0.488
 3598WAT     H210817   4.138   2.258   0.637
 3599WAT      O10818   5.071   3.269   0.770
 3599WAT     H110819   5.023   3.350   0.751
 3599WAT     H210820   5.002   3.204   0.785
 3600WAT      O10821   4.171   2.886   1.069
 3600WAT     H110822   4.081   2.908   1.094
 3600WAT     H210823   4.174   2.898   0.974
 3601WAT      O10824   4.054   2.573   0.927
 3601WAT     H110825   4.040   2.660   0.963
 3601WAT     H210826   3.966   2.539   0.912
 3602WAT      O10827   4.234   3.167   1.147
 3602WAT     H110828   4.231   3.208   1.061
 3602WAT     H210829   4.217   3.074   1.131
 3603WAT      O10830   5.429   3.245   1.277
 3603WAT     H110831   5.476   3.293   1.345
 3603WAT     H210832   5.491   3.239   1.205
 3604WAT      O10833   3.649   2.750   0.518
 3604WAT     H110834   3.657   2.763   0.424
 3604WAT     H210835   3.710   2.679   0.538
 3605WAT      O10836   5.369   2.965   0.993
 3605WAT     H110837   5.382   2.941   0.901
 3605WAT     H210838   5.373   2.881   1.040
 3606WAT      O10839   4.755   3.335   0.850
 3606WAT     H110840   4.807   3.326   0.930
 3606WAT     H210841   4.671   3.369   0.879
 3607WAT      O10842   5.354   2.170   1.090
 3607WAT     H110843   5.293   2.221   1.037
 3607WAT     H210844   5.322   2.080   1.084
 3608WAT      O10845   3.655   2.854   0.772
 3608WAT     H110846   3.671   2.807   0.690
 3608WAT     H210847   3.701   2.803   0.839
 3609WAT      O10848   4.132   1.767   0.276
 3609WAT     H110849   4.088   1.845   0.243
 3609WAT     H210850   4.188   1.799   0.347
 3610WAT      O10851   4.561   2.054   0.836
 3610WAT     H110852   4.514   2.075   0.917
 3610WAT     H210853   4.520   1.972   0.806
 3611WAT      O10854   5.061   2.176   0.949
 3611WAT     H110855   4.976   2.146   0.981
 3611WAT     H210856   5.045   2.200   0.858
 3612WAT      O10857   4.770   2.326   1.159
 3612WAT     H110858   4.803   2.243   1.125
 3612WAT     H210859   4.849   2.378   1.174
 3613WAT      O10860   4.336   1.822   0.462
 3613WAT     H110861   4.365   1.912   0.454
 3613WAT     H210862   4.390   1.773   0.400
 3614WAT      O10863   4.355   2.369   1.115
 3614WAT     H110864   4.345   2.275   1.100
 3614WAT     H210865   4.439   2.392   1.076
 3615WAT      O10866   3.868   2.011   0.931
 3615WAT     H110867   3.829   2.095   0.951
 3615WAT     H210868   3.799   1.947   0.950
 3616WAT      O10869   4.526   2.019   1.238
 3616WAT     H110870   4.457   2.000   1.301
 3616WAT     H210871   4.600   2.047   1.291
 3617WAT      O10872   3.598   1.803   0.334
 3617WAT     H110873   3.569   1.860   0.405
 3617WAT     H210874   3.673   1.755   0.370
 3618WAT      O10875   4.753   2.403   0.521
 3618WAT     H110876   4.680   2.454   0.556
 3618WAT     H210877   4.713   2.321   0.491
 3619WAT      O10878   4.397   2.070   0.362
 3619WAT     H110879   4.397   2.026   0.277
 3619WAT     H210880   4.486   2.103   0.372
 3620WAT      O10881   3.982   2.059   0.258
 3620WAT     H110882   3.948   2.106   0.333
 3620WAT     H210883   3.906   2.013   0.222
 3621WAT      O10884   4.799   1.948   0.462
 3621WAT     H110885   4.801   1.993   0.547
 3621WAT     H210886   4.775   1.858   0.484
 3622WAT      O10887   5.142   1.689   1.046
 3622WAT     H110888   5.175   1.616   1.099
 3622WAT     H210889   5.146   1.658   0.956
 3623WAT      O10890   3.812   2.792   0.988
 3623WAT     H110891   3.774   2.728   1.048
 3623WAT     H210892   3.843   2.862   1.045
 3624WAT      O10893   4.427   2.476   0.536
 3624WAT     H110894   4.464   2.429   0.611
 3624WAT     H210895   4.408   2.564   0.570
 3625WAT      O10896   4.206   2.380   0.768
 3625WAT     H110897   4.176   2.468   0.791
 3625WAT     H210898   4.301   2.386   0.772
 3626WAT      O10899   5.135   2.701   0.407
 3626WAT     H110900   5.207   2.750   0.368
 3626WAT     H210901   5.115   2.633   0.343
 3627WAT      O10902   4.673   2.708   0.996
 3627WAT     H110903   4.666   2.616   0.970
 3627WAT     H210904   4.610   2.718   1.067
 3628WAT      O10905   4.063   2.768   0.192
 3628WAT     H110906   4.115   2.688   0.186
 3628WAT     H210907   4.018   2.762   0.276
 3629WAT      O10908   3.812   2.465   0.883
 3629WAT     H110909   3.776   2.531   0.942
 3629WAT     H210910   3.782   2.381   0.920
 3630WAT      O10911   4.132   2.510   1.171
 3630WAT     H110912   4.102   2.525   1.081
 3630WAT     H210913   4.209   2.454   1.162
 3631WAT      O10914   4.666   2.990   0.971
 3631WAT     H110915   4.667   2.897   0.949
 3631WAT     H210916   4.595   2.999   1.035
 3632WAT      O10917   5.287   2.654   0.905
 3632WAT     H110918   5.215   2.713   0.886
 3632WAT     H210919   5.340   2.653   0.826
 3633WAT      O10920   4.840   2.827   0.255
 3633WAT     H110921   4.875   2.767   0.189
 3633WAT     H210922   4.752   2.794   0.272
 3634WAT      O10923   4.609   3.154   0.680
 3634WAT     H110924   4.674   3.175   0.748
 3634WAT     H210925   4.646   3.078   0.635
 3635WAT      O10926   4.737   2.955   0.552
 3635WAT     H110927   4.801   2.884   0.563
 3635WAT     H210928   4.789   3.033   0.534
 3636WAT      O10929   4.914   3.034   0.872
 3636WAT     H110930   4.948   3.093   0.940
 3636WAT     H210931   4.822   3.021   0.895
 3637WAT      O10932   3.669   1.813   0.951
 3637WAT     H110933   3.598   1.833   1.011
 3637WAT     H210934   3.711   1.736   0.988
 3638WAT      O10935   3.698   3.212   1.049
 3638WAT     H110936   3.709   3.118   1.035
 3638WAT     H210937   3.633   3.239   0.984
 3639WAT      O10938   4.497   3.039   1.189
 3639WAT     H110939   4.465   2.967   1.244
 3639WAT     H210940   4.430   3.107   1.197
 3640WAT      O10941   4.819   2.063   0.726
 3640WAT     H110942   4.855   1.981   0.758
 3640WAT     H210943   4.732   2.069   0.767
 3641WAT      O10944   4.515   2.328   0.748
 3641WAT     H110945   4.564   2.376   0.814
 3641WAT     H210946   4.529   2.236   0.769
 3642WAT      O10947   5.235   1.950   0.832
 3642WAT     H110948   5.185   2.024   0.866
 3642WAT     H210949   5.317   1.989   0.801
 3643WAT      O10950   5.064   2.474   0.177
 3643WAT     H110951   4.970   2.476   0.194
 3643WAT     H210952   5.096   2.395   0.221
 3644WAT      O10953   5.265   3.191   0.344
 3644WAT     H110954   5.277   3.273   0.392
 3644WAT     H210955   5.351   3.170   0.310
 3645WAT      O10956   4.012   3.400   0.312
 3645WAT     H110957   4.085   3.346   0.339
 3645WAT     H210958   4.050   3.487   0.298
 3646WAT      O10959   3.912   3.319   1.230
 3646WAT     H110960   3.993   3.351   1.272
 3646WAT     H210961   3.861   3.283   1.303
 3647WAT      O10962   4.796   2.930   1.225
 3647WAT     H110963   4.735   2.932   1.151
 3647WAT     H210964   4.766   2.857   1.279
 3648WAT      O10965   4.939   3.303   1.086
 3648WAT     H110966   5.034   3.294   1.081
 3648WAT     H210967   4.924   3.369   1.154
 3649WAT      O10968   3.684   2.568   1.125
 3649WAT     H110969   3.735   2.510   1.182
 3649WAT     H210970   3.610   2.596   1.179
 3650WAT      O10971   4.390   2.708   1.078
 3650WAT     H110972   4.313   2.765   1.070
 3650WAT     H210973   4.408   2.679   0.989
 3651WAT      O10974   5.104   2.881   1.134
 3651WAT     H110975   5.178   2.915   1.084
 3651WAT     H210976   5.028   2.898   1.079
 3652WAT      O10977   3.888   2.382   1.214
 3652WAT     H110978   3.892   2.352   1.305
 3652WAT     H210979   3.973   2.422   1.198
 3653WAT      O10980   4.082   2.240   1.011
 3653WAT     H110981   4.029   2.191   0.948
 3653WAT     H210982   4.149   2.283   0.958
 3654WAT      O10983   4.971   2.687   0.987
 3654WAT     H110984   5.013   2.702   1.072
 3654WAT     H210985   4.878   2.699   1.004
 3655WAT      O10986   5.019   2.421   1.188
 3655WAT     H110987   5.077   2.345   1.179
 3655WAT     H210988   5.036   2.474   1.110
 3656WAT      O10989   4.130   1.937   1.019
 3656WAT     H110990   4.121   1.875   0.946
 3656WAT     H210991   4.072   2.009   0.996
 3657WAT      O10992   4.407   1.792   0.722
 3657WAT     H110993   4.362   1.794   0.638
 3657WAT     H210994   4.344   1.752   0.782
 3658WAT      O10995   4.448   2.682   0.784
 3658WAT     H110996   4.490   2.766   0.767
 3658WAT     H210997   4.356   2.696   0.761
 3659WAT      O10998   4.681   2.455   0.923
 3659WAT     H110999   4.693   2.395   0.997
 3659WAT     H211000   4.767   2.459   0.881
 3660WAT      O11001   4.915   2.510   0.780
 3660WAT     H111002   4.862   2.563   0.720
 3660WAT     H211003   4.949   2.574   0.843
 3661WAT      O11004   4.233   3.312   0.896
 3661WAT     H111005   4.179   3.385   0.864
 3661WAT     H211006   4.258   3.265   0.817
 3662WAT      O11007   4.358   2.109   1.049
 3662WAT     H111008   4.417   2.078   1.117
 3662WAT     H211009   4.276   2.062   1.064
 3663WAT      O11010   4.840   2.071   1.072
 3663WAT     H111011   4.771   2.005   1.065
 3663WAT     H211012   4.912   2.026   1.116
 3664WAT      O11013   4.518   3.436   0.922
 3664WAT     H111014   4.511   3.526   0.953
 3664WAT     H211015   4.428   3.404   0.919
 3665WAT      O11016   3.659   3.169   0.252
 3665WAT     H111017   3.692   3.082   0.229
 3665WAT     H211018   3.702   3.189   0.335
 3666WAT      O11019   3.708   3.255   0.526
 3666WAT     H111020   3.664   3.273   0.609
 3666WAT     H211021   3.764   3.331   0.512
 3667WAT      O11022   5.271   3.205   0.955
 3667WAT     H111023   5.211   3.211   0.880
 3667WAT     H211024   5.284   3.111   0.968
 3668WAT      O11025   5.441   2.740   0.223
 3668WAT     H111026   5.478   2.661   0.183
 3668WAT     H211027   5.505   2.808   0.205
 3669WAT      O11028   5.140   2.878   0.765
 3669WAT     H111029   5.058   2.921   0.791
 3669WAT     H211030   5.180   2.939   0.703
 3670WAT      O11031   3.795   2.545   0.616
 3670WAT     H111032   3.831   2.536   0.704
 3670WAT     H211033   3.738   2.469   0.606
 3671WAT      O11034   5.275   2.392   0.917
 3671WAT     H111035   5.251   2.369   0.827
 3671WAT     H211036   5.301   2.484   0.913
 3672WAT      O11037   3.750   2.236   1.006
 3672WAT     H111038   3.660   2.233   1.040
 3672WAT     H211039   3.804   2.256   1.083
 3673WAT      O11040   5.118   1.914   1.195
 3673WAT     H111041   5.206   1.915   1.233
 3673WAT     H211042   5.120   1.841   1.134
 3674WAT      O11043   5.263   2.300   0.284
 3674WAT     H111044   5.315   2.250   0.221
 3674WAT     H211045   5.322   2.313   0.358
 3675WAT      O11046   5.281   2.308   0.636
 3675WAT     H111047   5.186   2.305   0.648
 3675WAT     H211048   5.299   2.399   0.613
 3676WAT      O11049   3.800   1.664   0.441
 3676WAT     H111050   3.865   1.609   0.397
 3676WAT     H211051   3.842   1.689   0.523
 3677WAT      O11052   5.190   1.683   0.777
 3677WAT     H111053   5.253   1.744   0.814
 3677WAT     H211054   5.204   1.687   0.683
 3678WAT      O11055   3.775   1.679   0.716
 3678WAT     H111056   3.741   1.725   0.792
 3678WAT     H211057   3.742   1.590   0.724
 3679WAT      O11058   3.936   2.996   1.132
 3679WAT     H111059   3.932   2.959   1.220
 3679WAT     H211060   3.949   3.090   1.146
 3680WAT      O11061   4.306   3.152   0.692
 3680WAT     H111062   4.282   3.179   0.603
 3680WAT     H211063   4.400   3.169   0.698
 3681WAT      O11064   4.527   1.798   1.068
 3681WAT     H111065   4.521   1.857   1.143
 3681WAT     H211066   4.621   1.788   1.053
 3682WAT      O11067   4.790   1.764   1.032
 3682WAT     H111068   4.852   1.796   0.965
 3682WAT     H211069   4.845   1.715   1.094
 3683WAT      O11070   5.432   3.354   0.772
 3683WAT     H111071   5.383   3.394   0.701
 3683WAT     H211072   5.371   3.291   0.812
 3684WAT      O11073   3.843   1.632   1.043
 3684WAT     H111074   3.897   1.614   0.967
 3684WAT     H211075   3.849   1.553   1.097
 3685WAT      O11076   3.920   3.291   0.844
 3685WAT     H111077   3.861   3.278   0.918
 3685WAT     H211078   3.919   3.207   0.797
 3686WAT      O11079   4.864   1.620   0.664
 3686WAT     H111080   4.777   1.654   0.644
 3686WAT     H211081   4.854   1.573   0.747
 3687WAT      O11082   4.955   1.841   0.803
 3687WAT     H111083   4.922   1.760   0.765
 3687WAT     H211084   5.050   1.837   0.790
 3688WAT      O11085   5.201   3.418   0.500
 3688WAT     H111086   5.155   3.493   0.463
 3688WAT     H211087   5.138   3.346   0.494
 3689WAT      O11088   3.883   3.028   0.739
 3689WAT     H111089   3.810   2.966   0.732
 3689WAT     H211090   3.889   3.067   0.652
 3690WAT      O11091   4.243   3.249   0.418
 3690WAT     H111092   4.295   3.188   0.365
 3690WAT     H211093   4.308   3.299   0.467
 3691WAT      O11094   4.517   3.338   0.500
 3691WAT     H111095   4.546   3.313   0.413
 3691WAT     H211096   4.569   3.283   0.559
 3692WAT      O11097   4.639   1.712   0.558
 3692WAT     H111098   4.561   1.759   0.586
 3692WAT     H211099   4.610   1.622   0.547
 3693WAT      O11100   5.094   1.782   0.363
 3693WAT     H111101   5.138   1.777   0.278
 3693WAT     H211102   5.067   1.874   0.370
 3694WAT      O11103   4.878   1.620   0.233
 3694WAT     H111104   4.938   1.677   0.281
 3694WAT     H211105   4.804   1.677   0.211
 3695WAT      O11106   4.524   3.430   1.237
 3695WAT     H111107   4.617   3.407   1.241
 3695WAT     H211108   4.523   3.513   1.189
 3696WAT      O11109   4.243   1.697   1.213
 3696WAT     H111110   4.215   1.747   1.137
 3696WAT     H211111   4.281   1.617   1.177
 3697WAT      O11112   4.903   1.638   1.271
 3697WAT     H111113   4.892   1.670   1.361
 3697WAT     H211114   4.985   1.678   1.242
 3698WAT      O11115   5.181   3.353   1.219
 3698WAT     H111116   5.260   3.303   1.199
 3698WAT     H211117   5.210   3.421   1.280
 3699WAT      O11118   4.794   0.563   5.817
 3699WAT     H111119   4.785   0.471   5.790
 3699WAT     H211120   4.752   0.612   5.747
 3700WAT      O11121   4.607   0.740   6.005
 3700WAT     H111122   4.529   0.693   6.034
 3700WAT     H211123   4.672   0.673   5.988
 3701WAT      O11124   5.009   1.181   5.883
 3701WAT     H111125   4.963   1.104   5.916
 3701WAT     H211126   5.090   1.184   5.934
 3702WAT      O11127   4.006   1.175   6.113
 3702WAT     H111128   4.037   1.086   6.095
 3702WAT     H211129   4.081   1.231   6.090
 3703WAT      O11130   3.849   0.268   5.472
 3703WAT     H111131   3.760   0.302   5.461
 3703WAT     H211132   3.878   0.248   5.382
 3704WAT      O11133   3.646   0.528   6.060
 3704WAT     H111134   3.703   0.451   6.060
 3704WAT     H211135   3.646   0.558   5.969
 3705WAT      O11136   4.631   1.410   5.845
 3705WAT     H111137   4.570   1.455   5.788
 3705WAT     H211138   4.717   1.425   5.805
 3706WAT      O11139   4.551   1.008   6.006
 3706WAT     H111140   4.544   0.914   5.990
 3706WAT     H211141   4.627   1.017   6.063
 3707WAT      O11142   4.654   0.289   6.029
 3707WAT     H111143   4.691   0.201   6.018
 3707WAT     H211144   4.644   0.322   5.940
 3708WAT      O11145   4.251   0.423   6.008
 3708WAT     H111146   4.302   0.473   6.072
 3708WAT     H211147   4.304   0.345   5.991
 3709WAT      O11148   4.718   0.898   5.585
 3709WAT     H111149   4.656   0.945   5.528
 3709WAT     H211150   4.769   0.967   5.626
 3710WAT      O11151   5.056   0.232   5.999
 3710WAT     H111152   4.985   0.261   6.057
 3710WAT     H211153   5.092   0.313   5.963
 3711WAT      O11154   3.655   0.967   5.322
 3711WAT     H111155   3.617   1.016   5.249
 3711WAT     H211156   3.681   1.034   5.385
 3712WAT      O11157   5.363   0.177   6.038
 3712WAT     H111158   5.268   0.180   6.052
 3712WAT     H211159   5.395   0.258   6.077
 3713WAT      O11160   4.971   1.378   6.097
 3713WAT     H111161   4.972   1.338   6.010
 3713WAT     H211162   4.916   1.456   6.087
 3714WAT      O11163   5.100   1.051   5.606
 3714WAT     H111164   5.089   0.956   5.618
 3714WAT     H211165   5.100   1.087   5.695
 3715WAT      O11166   4.655   0.613   5.542
 3715WAT     H111167   4.562   0.607   5.565
 3715WAT     H211168   4.670   0.707   5.530
 3716WAT      O11169   4.653   0.240   5.241
 3716WAT     H111170   4.559   0.257   5.250
 3716WAT     H211171   4.685   0.312   5.187
 3717WAT      O11172   5.058   0.769   5.592
 3717WAT     H111173   4.996   0.736   5.527
 3717WAT     H211174   5.056   0.705   5.663
 3718WAT      O11175   4.215   0.666   5.820
 3718WAT     H111176   4.175   0.595   5.770
 3718WAT     H211177   4.224   0.631   5.909
 3719WAT      O11178   4.262   1.035   6.036
 3719WAT     H111179   4.232   0.974   5.968
 3719WAT     H211180   4.357   1.038   6.025
 3720WAT      O11181   4.875   0.693   5.293
 3720WAT     H111182   4.919   0.610   5.278
 3720WAT     H211183   4.946   0.757   5.301
 3721WAT      O11184   4.686   1.187   5.690
 3721WAT     H111185   4.730   1.262   5.648
 3721WAT     H211186   4.680   1.212   5.782
 3722WAT      O11187   3.885   0.555   5.570
 3722WAT     H111188   3.873   0.628   5.509
 3722WAT     H211189   3.854   0.478   5.522
 3723WAT      O11190   3.774   1.043   5.792
 3723WAT     H111191   3.733   1.057   5.706
 3723WAT     H211192   3.863   1.014   5.771
 3724WAT      O11193   4.953   1.486   5.425
 3724WAT     H111194   4.937   1.457   5.515
 3724WAT     H211195   4.936   1.408   5.372
 3725WAT      O11196   4.201   1.464   5.603
 3725WAT     H111197   4.183   1.372   5.582
 3725WAT     H211198   4.115   1.500   5.627
 3726WAT      O11199   4.923   1.237   5.281
 3726WAT     H111200   4.854   1.237   5.215
 3726WAT     H211201   4.997   1.194   5.238
 3727WAT      O11202   4.880   1.400   5.689
 3727WAT     H111203   4.925   1.321   5.720
 3727WAT     H211204   4.914   1.471   5.743
 3728WAT      O11205   4.111   0.402   5.681
 3728WAT     H111206   4.088   0.380   5.771
 3728WAT     H211207   4.033   0.445   5.646
 3729WAT      O11208   4.834   0.403   5.541
 3729WAT     H111209   4.774   0.475   5.522
 3729WAT     H211210   4.889   0.396   5.463
 3730WAT      O11211   4.695   0.266   5.744
 3730WAT     H111212   4.734   0.298   5.663
 3730WAT     H211213   4.731   0.178   5.755
 3731WAT      O11214   3.617   0.320   5.087
 3731WAT     H111215   3.609   0.414   5.101
 3731WAT     H211216   3.582   0.305   4.999
 3732WAT      O11217   4.403   0.293   5.293
 3732WAT     H111218   4.415   0.289   5.388
 3732WAT     H211219   4.365   0.379   5.277
 3733WAT      O11220   4.304   0.524   5.233
 3733WAT     H111221   4.248   0.479   5.170
 3733WAT     H211222   4.375   0.560   5.179
 3734WAT      O11223   4.059   0.924   5.460
 3734WAT     H111224   3.981   0.870   5.444
 3734WAT     H211225   4.132   0.872   5.426
 3735WAT      O11226   5.135   0.823   6.039
 3735WAT     H111227   5.207   0.873   6.000
 3735WAT     H211228   5.115   0.755   5.975
 3736WAT      O11229   4.952   0.400   5.283
 3736WAT     H111230   5.041   0.431   5.266
 3736WAT     H211231   4.949   0.313   5.244
 3737WAT      O11232   4.063   0.890   5.824
 3737WAT     H111233   4.115   0.810   5.818
 3737WAT     H211234   4.018   0.884   5.908
 3738WAT      O11235   4.552   1.017   5.351
 3738WAT     H111236   4.586   1.092   5.302
 3738WAT     H211237   4.469   1.048   5.387
 3739WAT      O11238   5.179   0.531   5.230
 3739WAT     H111239   5.171   0.574   5.145
 3739WAT     H211240   5.251   0.577   5.273
 3740WAT      O11241   5.282   1.216   5.503
 3740WAT     H111242   5.218   1.151   5.530
 3740WAT     H211243   5.244   1.257   5.425
 3741WAT      O11244   4.840   0.949   5.888
 3741WAT     H111245   4.875   0.890   5.822
 3741WAT     H211246   4.752   0.917   5.905
 3742WAT      O11247   4.449   1.025   5.628
 3742WAT     H111248   4.518   1.080   5.666
 3742WAT     H211249   4.370   1.080   5.632
 3743WAT      O11250   3.663   0.587   5.177
 3743WAT     H111251   3.750   0.615   5.206
 3743WAT     H211252   3.614   0.668   5.166
 3744WAT      O11253   4.379   0.726   5.590
 3744WAT     H111254   4.425   0.807   5.612
 3744WAT     H211255   4.344   0.694   5.673
 3745WAT      O11256   5.121   1.106   5.157
 3745WAT     H111257   5.099   1.034   5.216
 3745WAT     H211258   5.082   1.081   5.073
 3746WAT      O11259   3.699   1.508   5.234
 3746WAT     H111260   3.735   1.568   5.169
 3746WAT     H211261   3.685   1.563   5.311
 3747WAT      O11262   5.079   0.897   5.323
 3747WAT     H111263   5.051   0.943   5.402
 3747WAT     H211264   5.159   0.851   5.350
 3748WAT      O11265   4.301   1.247   5.316
 3748WAT     H111266   4.300   1.320   5.254
 3748WAT     H211267   4.209   1.222   5.325
 3749WAT      O11268   3.861   0.769   5.390
 3749WAT     H111269   3.800   0.843   5.391
 3749WAT     H211270   3.909   0.778   5.308
 3750WAT      O11271   4.600   1.253   5.182
 3750WAT     H111272   4.610   1.232   5.089
 3750WAT     H211273   4.510   1.227   5.203
 3751WAT      O11274   4.352   0.309   5.580
 3751WAT     H111275   4.281   0.356   5.624
 3751WAT     H211276   4.380   0.243   5.644
 3752WAT      O11277   4.464   1.505   5.652
 3752WAT     H111278   4.489   1.501   5.559
 3752WAT     H211279   4.369   1.492   5.651
 3753WAT      O11280   5.064   0.597   5.809
 3753WAT     H111281   4.970   0.598   5.827
 3753WAT     H211282   5.096   0.518   5.854
 3754WAT      O11283   4.062   0.765   5.165
 3754WAT     H111284   4.139   0.754   5.221
 3754WAT     H211285   4.070   0.695   5.100
 3755WAT      O11286   3.932   0.508   5.234
 3755WAT     H111287   3.940   0.413   5.245
 3755WAT     H211288   4.021   0.541   5.244
 3756WAT      O11289   5.265   1.314   5.977
 3756WAT     H111290   5.277   1.396   6.024
 3756WAT     H211291   5.351   1.293   5.942
 3757WAT      O11292   4.012   1.523   5.944
 3757WAT     H111293   4.085   1.468   5.971
 3757WAT     H211294   4.050   1.610   5.930
 3758WAT      O11295   3.700   1.130   5.531
 3758WAT     H111296   3.608   1.154   5.530
 3758WAT     H211297   3.747   1.213   5.519
 3759WAT      O11298   4.323   1.440   5.126
 3759WAT     H111299   4.402   1.469   5.081
 3759WAT     H211300   4.271   1.397   5.058
 3760WAT      O11301   5.228   1.363   5.268
 3760WAT     H111302   5.200   1.322   5.187
 3760WAT     H211303   5.208   1.456   5.256
 3761WAT      O11304   4.375   0.962   5.113
 3761WAT     H111305   4.364   0.901   5.185
 3761WAT     H211306   4.358   0.910   5.034
 3762WAT      O11307   4.699   0.869   5.173
 3762WAT     H111308   4.644   0.913   5.237
 3762WAT     H211309   4.761   0.818   5.225
 3763WAT      O11310   4.265   0.764   5.363
 3763WAT     H111311   4.308   0.748   5.447
 3763WAT     H211312   4.278   0.683   5.313
 3764WAT      O11313   4.517   0.667   5.087
 3764WAT     H111314   4.569   0.595   5.051
 3764WAT     H211315   4.581   0.731   5.117
 3765WAT      O11316   4.155   0.372   5.057
 3765WAT     H111317   4.135   0.285   5.093
 3765WAT     H211318   4.138   0.363   4.963
 3766WAT      O11319   4.573   1.475   5.316
 3766WAT     H111320   4.663   1.509   5.319
 3766WAT     H211321   4.576   1.403   5.254
 3767WAT      O11322   3.937   1.012   5.139
 3767WAT     H111323   3.981   1.067   5.205
 3767WAT     H211324   3.986   0.930   5.140
 3768WAT      O11325   3.659   1.291   5.884
 3768WAT     H111326   3.692   1.204   5.861
 3768WAT     H211327   3.702   1.312   5.968
 3769WAT      O11328   4.118   1.124   5.650
 3769WAT     H111329   4.088   1.112   5.741
 3769WAT     H211330   4.108   1.038   5.610
 3770WAT      O11331   5.395   1.102   5.121
 3770WAT     H111332   5.312   1.109   5.168
 3770WAT     H211333   5.413   1.191   5.090
 3771WAT      O11334   5.341   0.777   5.371
 3771WAT     H111335   5.417   0.834   5.382
 3771WAT     H211336   5.342   0.720   5.448
 3772WAT      O11337   3.691   0.629   5.794
 3772WAT     H111338   3.625   0.602   5.730
 3772WAT     H211339   3.775   0.618   5.749
 3773WAT      O11340   5.441   0.862   5.856
 3773WAT     H111341   5.478   0.784   5.815
 3773WAT     H211342   5.505   0.931   5.838
 3774WAT      O11343   5.346   0.806   5.087
 3774WAT     H111344   5.373   0.897   5.074
 3774WAT     H211345   5.327   0.800   5.180
 3775WAT      O11346   5.336   0.600   5.586
 3775WAT     H111347   5.298   0.523   5.543
 3775WAT     H211348   5.263   0.638   5.635
 3776WAT      O11349   3.612   0.350   5.388
 3776WAT     H111350   3.522   0.376   5.371
 3776WAT     H211351   3.661   0.377   5.310
 3777WAT      O11352   5.263   0.422   5.916
 3777WAT     H111353   5.315   0.373   5.853
 3777WAT     H211354   5.322   0.436   5.991
 3778WAT      O11355   3.866   0.256   5.179
 3778WAT     H111356   3.937   0.214   5.131
 3778WAT     H211357   3.795   0.262   5.116
 3779WAT      O11358   5.212   0.348   5.510
 3779WAT     H111359   5.262   0.325   5.589
 3779WAT     H211360   5.192   0.264   5.468
 3780WAT      O11361   5.145   1.476   5.749
 3780WAT     H111362   5.205   1.444   5.682
 3780WAT     H211363   5.171   1.428   5.829
 3781WAT      O11364   5.201   1.541   6.132
 3781WAT     H111365   5.155   1.616   6.095
 3781WAT     H211366   5.138   1.469   6.127
 3782WAT      O11367   4.243   1.372   6.050
 3782WAT     H111368   4.295   1.310   5.997
 3782WAT     H211369   4.308   1.422   6.099
 3783WAT      O11370   3.711   1.482   5.692
 3783WAT     H111371   3.695   1.419   5.762
 3783WAT     H211372   3.625   1.502   5.657
 3784WAT      O11373   3.872   1.351   5.437
 3784WAT     H111374   3.819   1.389   5.367
 3784WAT     H211375   3.864   1.414   5.509
 3785WAT      O11376   5.348   1.507   5.569
 3785WAT     H111377   5.365   1.438   5.505
 3785WAT     H211378   5.278   1.560   5.530
 3786WAT      O11379   4.132   1.546   5.324
 3786WAT     H111380   4.205   1.518   5.270
 3786WAT     H211381   4.158   1.522   5.413
 3787WAT      O11382   4.048   1.158   5.325
 3787WAT     H111383   3.985   1.205   5.380
 3787WAT     H211384   4.060   1.073   5.368
 3788WAT      O11385   4.794   0.563   3.940
 3788WAT     H111386   4.785   0.471   3.913
 3788WAT     H211387   4.752   0.612   3.869
 3789WAT      O11388   4.607   0.740   4.128
 3789WAT     H111389   4.529   0.693   4.157
 3789WAT     H211390   4.672   0.673   4.111
 3790WAT      O11391   4.008   0.772   4.216
 3790WAT     H111392   3.925   0.746   4.256
 3790WAT     H211393   4.069   0.779   4.289
 3791WAT      O11394   5.009   1.181   4.006
 3791WAT     H111395   4.963   1.104   4.039
 3791WAT     H211396   5.090   1.184   4.057
 3792WAT      O11397   4.006   1.175   4.235
 3792WAT     H111398   4.037   1.086   4.217
 3792WAT     H211399   4.081   1.231   4.213
 3793WAT      O11400   3.849   0.268   3.594
 3793WAT     H111401   3.760   0.302   3.584
 3793WAT     H211402   3.878   0.248   3.505
 3794WAT      O11403   3.646   0.528   4.183
 3794WAT     H111404   3.703   0.451   4.183
 3794WAT     H211405   3.646   0.558   4.092
 3795WAT      O11406   4.631   1.410   3.968
 3795WAT     H111407   4.570   1.455   3.911
 3795WAT     H211408   4.717   1.425   3.928
 3796WAT      O11409   4.551   1.008   4.129
 3796WAT     H111410   4.544   0.914   4.113
 3796WAT     H211411   4.627   1.017   4.186
 3797WAT      O11412   4.654   0.289   4.151
 3797WAT     H111413   4.691   0.201   4.140
 3797WAT     H211414   4.644   0.322   4.062
 3798WAT      O11415   3.832   0.318   4.222
 3798WAT     H111416   3.900   0.345   4.284
 3798WAT     H211417   3.800   0.234   4.255
 3799WAT      O11418   4.251   0.423   4.131
 3799WAT     H111419   4.302   0.473   4.195
 3799WAT     H211420   4.304   0.345   4.113
 3800WAT      O11421   5.461   0.240   4.501
 3800WAT     H111422   5.391   0.279   4.449
 3800WAT     H211423   5.488   0.309   4.561
 3801WAT      O11424   4.718   0.898   3.707
 3801WAT     H111425   4.656   0.945   3.651
 3801WAT     H211426   4.769   0.967   3.749
 3802WAT      O11427   4.204   0.851   4.375
 3802WAT     H111428   4.171   0.914   4.439
 3802WAT     H211429   4.222   0.903   4.297
 3803WAT      O11430   5.056   0.232   4.122
 3803WAT     H111431   4.985   0.261   4.180
 3803WAT     H211432   5.092   0.313   4.086
 3804WAT      O11433   4.126   1.048   4.557
 3804WAT     H111434   4.187   1.115   4.529
 3804WAT     H211435   4.039   1.089   4.548
 3805WAT      O11436   3.655   0.967   3.445
 3805WAT     H111437   3.617   1.016   3.372
 3805WAT     H211438   3.681   1.034   3.508
 3806WAT      O11439   5.217   1.194   4.348
 3806WAT     H111440   5.149   1.261   4.347
 3806WAT     H211441   5.271   1.214   4.272
 3807WAT      O11442   5.363   0.177   4.161
 3807WAT     H111443   5.268   0.180   4.174
 3807WAT     H211444   5.395   0.258   4.200
 3808WAT      O11445   4.971   1.378   4.220
 3808WAT     H111446   4.972   1.338   4.133
 3808WAT     H211447   4.916   1.456   4.209
 3809WAT      O11448   5.100   1.051   3.729
 3809WAT     H111449   5.089   0.956   3.741
 3809WAT     H211450   5.100   1.087   3.817
 3810WAT      O11451   4.911   0.869   4.352
 3810WAT     H111452   4.952   0.847   4.269
 3810WAT     H211453   4.983   0.895   4.410
 3811WAT      O11454   4.655   0.613   3.664
 3811WAT     H111455   4.562   0.607   3.687
 3811WAT     H211456   4.670   0.707   3.653
 3812WAT      O11457   4.653   0.240   3.364
 3812WAT     H111458   4.559   0.257   3.372
 3812WAT     H211459   4.685   0.312   3.309
 3813WAT      O11460   5.305   0.709   4.362
 3813WAT     H111461   5.223   0.716   4.314
 3813WAT     H211462   5.365   0.767   4.315
 3814WAT      O11463   5.058   0.769   3.715
 3814WAT     H111464   4.996   0.736   3.650
 3814WAT     H211465   5.056   0.705   3.785
 3815WAT      O11466   5.002   0.387   4.456
 3815WAT     H111467   4.961   0.470   4.482
 3815WAT     H211468   4.929   0.329   4.437
 3816WAT      O11469   4.215   0.666   3.942
 3816WAT     H111470   4.175   0.595   3.893
 3816WAT     H211471   4.224   0.631   4.031
 3817WAT      O11472   4.262   1.035   4.159
 3817WAT     H111473   4.232   0.974   4.091
 3817WAT     H211474   4.357   1.038   4.148
 3818WAT      O11475   4.086   0.343   4.320
 3818WAT     H111476   4.142   0.354   4.243
 3818WAT     H211477   4.138   0.381   4.392
 3819WAT      O11478   5.071   1.392   4.525
 3819WAT     H111479   5.023   1.473   4.506
 3819WAT     H211480   5.002   1.327   4.540
 3820WAT      O11481   4.171   1.008   4.824
 3820WAT     H111482   4.081   1.031   4.849
 3820WAT     H211483   4.174   1.021   4.729
 3821WAT      O11484   4.875   0.693   3.415
 3821WAT     H111485   4.919   0.610   3.401
 3821WAT     H211486   4.946   0.757   3.424
 3822WAT      O11487   4.054   0.696   4.681
 3822WAT     H111488   4.040   0.783   4.718
 3822WAT     H211489   3.966   0.661   4.667
 3823WAT      O11490   4.686   1.187   3.812
 3823WAT     H111491   4.730   1.262   3.771
 3823WAT     H211492   4.680   1.212   3.904
 3824WAT      O11493   4.234   1.290   4.902
 3824WAT     H111494   4.231   1.330   4.816
 3824WAT     H211495   4.217   1.197   4.886
 3825WAT      O11496   3.885   0.555   3.692
 3825WAT     H111497   3.873   0.628   3.631
 3825WAT     H211498   3.854   0.478   3.645
 3826WAT      O11499   5.429   1.368   5.032
 3826WAT     H111500   5.476   1.416   5.100
 3826WAT     H211501   5.491   1.361   4.959
 3827WAT      O11502   3.649   0.873   4.273
 3827WAT     H111503   3.657   0.886   4.179
 3827WAT     H211504   3.710   0.802   4.292
 3828WAT      O11505   3.774   1.043   3.914
 3828WAT     H111506   3.733   1.057   3.829
 3828WAT     H211507   3.863   1.014   3.894
 3829WAT      O11508   5.369   1.087   4.748
 3829WAT     H111509   5.382   1.063   4.656
 3829WAT     H211510   5.373   1.004   4.795
 3830WAT      O11511   4.755   1.457   4.605
 3830WAT     H111512   4.807   1.449   4.685
 3830WAT     H211513   4.671   1.492   4.634
 3831WAT      O11514   4.953   1.486   3.548
 3831WAT     H111515   4.937   1.457   3.638
 3831WAT     H211516   4.936   1.408   3.494
 3832WAT      O11517   4.201   1.464   3.725
 3832WAT     H111518   4.183   1.372   3.704
 3832WAT     H211519   4.115   1.500   3.749
 3833WAT      O11520   4.923   1.237   3.404
 3833WAT     H111521   4.854   1.237   3.338
 3833WAT     H211522   4.997   1.194   3.361
 3834WAT      O11523   4.880   1.400   3.811
 3834WAT     H111524   4.925   1.321   3.843
 3834WAT     H211525   4.914   1.471   3.866
 3835WAT      O11526   5.354   0.293   4.844
 3835WAT     H111527   5.293   0.343   4.792
 3835WAT     H211528   5.322   0.202   4.839
 3836WAT      O11529   3.655   0.977   4.527
 3836WAT     H111530   3.671   0.930   4.445
 3836WAT     H211531   3.701   0.926   4.594
 3837WAT      O11532   5.061   0.299   4.704
 3837WAT     H111533   4.976   0.269   4.736
 3837WAT     H211534   5.045   0.323   4.613
 3838WAT      O11535   4.770   0.449   4.914
 3838WAT     H111536   4.803   0.365   4.880
 3838WAT     H211537   4.849   0.501   4.929
 3839WAT      O11538   4.111   0.402   3.804
 3839WAT     H111539   4.088   0.380   3.894
 3839WAT     H211540   4.033   0.445   3.769
 3840WAT      O11541   4.834   0.403   3.663
 3840WAT     H111542   4.774   0.475   3.645
 3840WAT     H211543   4.889   0.396   3.585
 3841WAT      O11544   4.355   0.492   4.870
 3841WAT     H111545   4.345   0.398   4.855
 3841WAT     H211546   4.439   0.514   4.831
 3842WAT      O11547   4.695   0.266   3.866
 3842WAT     H111548   4.734   0.298   3.785
 3842WAT     H211549   4.731   0.178   3.878
 3843WAT      O11550   3.617   0.320   3.210
 3843WAT     H111551   3.609   0.414   3.224
 3843WAT     H211552   3.582   0.305   3.122
 3844WAT      O11553   4.753   0.525   4.276
 3844WAT     H111554   4.680   0.576   4.311
 3844WAT     H211555   4.713   0.444   4.246
 3845WAT      O11556   4.403   0.293   3.416
 3845WAT     H111557   4.415   0.289   3.510
 3845WAT     H211558   4.365   0.379   3.400
 3846WAT      O11559   4.304   0.524   3.355
 3846WAT     H111560   4.248   0.479   3.293
 3846WAT     H211561   4.375   0.560   3.302
 3847WAT      O11562   3.812   0.914   4.743
 3847WAT     H111563   3.774   0.850   4.803
 3847WAT     H211564   3.843   0.985   4.800
 3848WAT      O11565   4.427   0.599   4.291
 3848WAT     H111566   4.464   0.552   4.366
 3848WAT     H211567   4.408   0.686   4.325
 3849WAT      O11568   4.206   0.503   4.523
 3849WAT     H111569   4.176   0.591   4.545
 3849WAT     H211570   4.301   0.509   4.527
 3850WAT      O11571   4.059   0.924   3.583
 3850WAT     H111572   3.981   0.870   3.567
 3850WAT     H211573   4.132   0.872   3.549
 3851WAT      O11574   5.135   0.823   4.162
 3851WAT     H111575   5.207   0.873   4.123
 3851WAT     H211576   5.115   0.755   4.097
 3852WAT      O11577   4.673   0.830   4.751
 3852WAT     H111578   4.666   0.738   4.725
 3852WAT     H211579   4.610   0.840   4.822
 3853WAT      O11580   4.952   0.400   3.406
 3853WAT     H111581   5.041   0.431   3.388
 3853WAT     H211582   4.949   0.313   3.367
 3854WAT      O11583   4.063   0.890   3.946
 3854WAT     H111584   4.115   0.810   3.941
 3854WAT     H211585   4.018   0.884   4.031
 3855WAT      O11586   4.552   1.017   3.474
 3855WAT     H111587   4.586   1.092   3.424
 3855WAT     H211588   4.469   1.048   3.510
 3856WAT      O11589   3.812   0.587   4.638
 3856WAT     H111590   3.776   0.654   4.696
 3856WAT     H211591   3.782   0.504   4.675
 3857WAT      O11592   4.132   0.633   4.926
 3857WAT     H111593   4.102   0.647   4.836
 3857WAT     H211594   4.209   0.577   4.917
 3858WAT      O11595   4.666   1.113   4.726
 3858WAT     H111596   4.667   1.019   4.704
 3858WAT     H211597   4.595   1.121   4.790
 3859WAT      O11598   5.179   0.531   3.353
 3859WAT     H111599   5.171   0.574   3.268
 3859WAT     H211600   5.251   0.577   3.396
 3860WAT      O11601   5.287   0.777   4.660
 3860WAT     H111602   5.215   0.836   4.641
 3860WAT     H211603   5.340   0.776   4.580
 3861WAT      O11604   5.282   1.216   3.625
 3861WAT     H111605   5.218   1.151   3.653
 3861WAT     H211606   5.244   1.257   3.548
 3862WAT      O11607   4.840   0.949   4.010
 3862WAT     H111608   4.875   0.890   3.944
 3862WAT     H211609   4.752   0.917   4.027
 3863WAT      O11610   4.449   1.025   3.751
 3863WAT     H111611   4.518   1.080   3.789
 3863WAT     H211612   4.370   1.080   3.754
 3864WAT      O11613   3.663   0.587   3.300
 3864WAT     H111614   3.750   0.615   3.328
 3864WAT     H211615   3.614   0.668   3.289
 3865WAT      O11616   4.379   0.726   3.712
 3865WAT     H111617   4.425   0.807   3.735
 3865WAT     H211618   4.344   0.694   3.795
 3866WAT      O11619   4.609   1.277   4.435
 3866WAT     H111620   4.674   1.297   4.503
 3866WAT     H211621   4.646   1.201   4.390
 3867WAT      O11622   4.737   1.077   4.307
 3867WAT     H111623   4.801   1.007   4.318
 3867WAT     H211624   4.789   1.155   4.289
 3868WAT      O11625   5.121   1.106   3.279
 3868WAT     H111626   5.099   1.034   3.338
 3868WAT     H211627   5.082   1.081   3.195
 3869WAT      O11628   4.914   1.157   4.627
 3869WAT     H111629   4.948   1.216   4.695
 3869WAT     H211630   4.822   1.144   4.650
 3870WAT      O11631   3.699   1.508   3.357
 3870WAT     H111632   3.735   1.568   3.291
 3870WAT     H211633   3.685   1.563   3.434
 3871WAT      O11634   5.079   0.897   3.445
 3871WAT     H111635   5.051   0.943   3.524
 3871WAT     H211636   5.159   0.851   3.472
 3872WAT      O11637   3.698   1.335   4.804
 3872WAT     H111638   3.709   1.241   4.790
 3872WAT     H211639   3.633   1.361   4.739
 3873WAT      O11640   4.497   1.162   4.944
 3873WAT     H111641   4.465   1.090   4.999
 3873WAT     H211642   4.430   1.230   4.951
 3874WAT      O11643   4.301   1.247   3.438
 3874WAT     H111644   4.300   1.320   3.377
 3874WAT     H211645   4.209   1.222   3.448
 3875WAT      O11646   3.861   0.769   3.513
 3875WAT     H111647   3.800   0.843   3.514
 3875WAT     H211648   3.909   0.778   3.430
 3876WAT      O11649   4.600   1.253   3.305
 3876WAT     H111650   4.610   1.232   3.212
 3876WAT     H211651   4.510   1.227   3.325
 3877WAT      O11652   4.352   0.309   3.703
 3877WAT     H111653   4.281   0.356   3.747
 3877WAT     H211654   4.380   0.243   3.766
 3878WAT      O11655   4.515   0.451   4.503
 3878WAT     H111656   4.564   0.498   4.569
 3878WAT     H211657   4.529   0.358   4.524
 3879WAT      O11658   4.464   1.505   3.774
 3879WAT     H111659   4.489   1.501   3.682
 3879WAT     H211660   4.369   1.492   3.773
 3880WAT      O11661   5.064   0.597   3.932
 3880WAT     H111662   4.970   0.598   3.949
 3880WAT     H211663   5.096   0.518   3.976
 3881WAT      O11664   4.062   0.765   3.288
 3881WAT     H111665   4.139   0.754   3.344
 3881WAT     H211666   4.070   0.695   3.223
 3882WAT      O11667   3.932   0.508   3.356
 3882WAT     H111668   3.940   0.413   3.367
 3882WAT     H211669   4.021   0.541   3.367
 3883WAT      O11670   5.265   1.314   4.099
 3883WAT     H111671   5.277   1.396   4.146
 3883WAT     H211672   5.351   1.293   4.064
 3884WAT      O11673   4.012   1.523   4.066
 3884WAT     H111674   4.085   1.468   4.093
 3884WAT     H211675   4.050   1.610   4.052
 3885WAT      O11676   3.700   1.130   3.654
 3885WAT     H111677   3.608   1.154   3.653
 3885WAT     H211678   3.747   1.213   3.642
 3886WAT      O11679   3.912   1.441   4.985
 3886WAT     H111680   3.993   1.474   5.027
 3886WAT     H211681   3.861   1.405   5.057
 3887WAT      O11682   4.323   1.440   3.249
 3887WAT     H111683   4.402   1.469   3.203
 3887WAT     H211684   4.271   1.397   3.181
 3888WAT      O11685   4.796   1.052   4.980
 3888WAT     H111686   4.735   1.055   4.906
 3888WAT     H211687   4.766   0.979   5.034
 3889WAT      O11688   4.939   1.425   4.841
 3889WAT     H111689   5.034   1.417   4.836
 3889WAT     H211690   4.924   1.492   4.908
 3890WAT      O11691   5.228   1.363   3.391
 3890WAT     H111692   5.200   1.322   3.310
 3890WAT     H211693   5.208   1.456   3.379
 3891WAT      O11694   3.684   0.690   4.880
 3891WAT     H111695   3.735   0.632   4.937
 3891WAT     H211696   3.610   0.719   4.933
 3892WAT      O11697   4.375   0.962   3.235
 3892WAT     H111698   4.364   0.901   3.308
 3892WAT     H211699   4.358   0.910   3.157
 3893WAT      O11700   4.390   0.831   4.833
 3893WAT     H111701   4.313   0.888   4.825
 3893WAT     H211702   4.408   0.802   4.744
 3894WAT      O11703   4.699   0.869   3.296
 3894WAT     H111704   4.644   0.913   3.360
 3894WAT     H211705   4.761   0.818   3.348
 3895WAT      O11706   5.104   1.004   4.889
 3895WAT     H111707   5.178   1.038   4.838
 3895WAT     H211708   5.028   1.021   4.833
 3896WAT      O11709   3.888   0.505   4.969
 3896WAT     H111710   3.892   0.475   5.060
 3896WAT     H211711   3.973   0.545   4.953
 3897WAT      O11712   4.265   0.764   3.485
 3897WAT     H111713   4.308   0.748   3.569
 3897WAT     H211714   4.278   0.683   3.436
 3898WAT      O11715   4.082   0.362   4.766
 3898WAT     H111716   4.029   0.313   4.703
 3898WAT     H211717   4.149   0.405   4.712
 3899WAT      O11718   4.517   0.667   3.210
 3899WAT     H111719   4.569   0.595   3.173
 3899WAT     H211720   4.581   0.731   3.240
 3900WAT      O11721   4.971   0.809   4.742
 3900WAT     H111722   5.013   0.825   4.827
 3900WAT     H211723   4.878   0.822   4.759
 3901WAT      O11724   5.019   0.543   4.943
 3901WAT     H111725   5.077   0.468   4.934
 3901WAT     H211726   5.036   0.596   4.865
 3902WAT      O11727   4.448   0.804   4.539
 3902WAT     H111728   4.490   0.889   4.522
 3902WAT     H211729   4.356   0.818   4.516
 3903WAT      O11730   4.681   0.578   4.678
 3903WAT     H111731   4.693   0.518   4.752
 3903WAT     H211732   4.767   0.581   4.636
 3904WAT      O11733   4.915   0.633   4.535
 3904WAT     H111734   4.862   0.685   4.475
 3904WAT     H211735   4.949   0.696   4.598
 3905WAT      O11736   4.155   0.372   3.180
 3905WAT     H111737   4.135   0.285   3.216
 3905WAT     H211738   4.138   0.363   3.086
 3906WAT      O11739   4.233   1.435   4.651
 3906WAT     H111740   4.179   1.507   4.619
 3906WAT     H211741   4.258   1.387   4.572
 3907WAT      O11742   4.358   0.232   4.803
 3907WAT     H111743   4.417   0.201   4.872
 3907WAT     H211744   4.276   0.185   4.819
 3908WAT      O11745   4.518   1.558   4.677
 3908WAT     H111746   4.511   1.649   4.707
 3908WAT     H211747   4.428   1.527   4.674
 3909WAT      O11748   4.573   1.475   3.439
 3909WAT     H111749   4.663   1.509   3.441
 3909WAT     H211750   4.576   1.403   3.376
 3910WAT      O11751   3.937   1.012   3.262
 3910WAT     H111752   3.981   1.067   3.327
 3910WAT     H211753   3.986   0.930   3.263
 3911WAT      O11754   3.659   1.291   4.007
 3911WAT     H111755   3.692   1.204   3.984
 3911WAT     H211756   3.702   1.312   4.090
 3912WAT      O11757   4.118   1.124   3.773
 3912WAT     H111758   4.088   1.112   3.863
 3912WAT     H211759   4.108   1.038   3.732
 3913WAT      O11760   3.708   1.378   4.281
 3913WAT     H111761   3.664   1.396   4.364
 3913WAT     H211762   3.764   1.454   4.267
 3914WAT      O11763   5.271   1.328   4.710
 3914WAT     H111764   5.211   1.334   4.635
 3914WAT     H211765   5.284   1.234   4.723
 3915WAT      O11766   5.395   1.102   3.243
 3915WAT     H111767   5.312   1.109   3.290
 3915WAT     H211768   5.413   1.191   3.213
 3916WAT      O11769   5.341   0.777   3.494
 3916WAT     H111770   5.417   0.834   3.504
 3916WAT     H211771   5.342   0.720   3.571
 3917WAT      O11772   3.691   0.629   3.917
 3917WAT     H111773   3.625   0.602   3.852
 3917WAT     H211774   3.775   0.618   3.872
 3918WAT      O11775   5.441   0.862   3.978
 3918WAT     H111776   5.478   0.784   3.937
 3918WAT     H211777   5.505   0.931   3.960
 3919WAT      O11778   5.140   1.001   4.519
 3919WAT     H111779   5.058   1.044   4.546
 3919WAT     H211780   5.180   1.062   4.458
 3920WAT      O11781   5.346   0.806   3.209
 3920WAT     H111782   5.373   0.897   3.197
 3920WAT     H211783   5.327   0.800   3.303
 3921WAT      O11784   5.336   0.600   3.709
 3921WAT     H111785   5.298   0.523   3.665
 3921WAT     H211786   5.263   0.638   3.757
 3922WAT      O11787   3.795   0.668   4.371
 3922WAT     H111788   3.831   0.659   4.459
 3922WAT     H211789   3.738   0.591   4.361
 3923WAT      O11790   5.275   0.514   4.672
 3923WAT     H111791   5.251   0.492   4.582
 3923WAT     H211792   5.301   0.606   4.668
 3924WAT      O11793   3.750   0.359   4.761
 3924WAT     H111794   3.660   0.355   4.795
 3924WAT     H211795   3.804   0.379   4.838
 3925WAT      O11796   3.612   0.350   3.511
 3925WAT     H111797   3.522   0.376   3.494
 3925WAT     H211798   3.661   0.377   3.433
 3926WAT      O11799   5.263   0.422   4.039
 3926WAT     H111800   5.315   0.373   3.976
 3926WAT     H211801   5.322   0.436   4.113
 3927WAT      O11802   5.281   0.431   4.391
 3927WAT     H111803   5.186   0.427   4.402
 3927WAT     H211804   5.299   0.522   4.367
 3928WAT      O11805   3.866   0.256   3.302
 3928WAT     H111806   3.937   0.214   3.253
 3928WAT     H211807   3.795   0.262   3.239
 3929WAT      O11808   5.212   0.348   3.633
 3929WAT     H111809   5.262   0.325   3.711
 3929WAT     H211810   5.192   0.264   3.591
 3930WAT      O11811   5.145   1.476   3.872
 3930WAT     H111812   5.205   1.444   3.804
 3930WAT     H211813   5.171   1.428   3.951
 3931WAT      O11814   3.936   1.119   4.887
 3931WAT     H111815   3.932   1.082   4.975
 3931WAT     H211816   3.949   1.213   4.901
 3932WAT      O11817   4.306   1.274   4.447
 3932WAT     H111818   4.282   1.301   4.358
 3932WAT     H211819   4.400   1.292   4.453
 3933WAT      O11820   5.432   1.476   4.527
 3933WAT     H111821   5.383   1.516   4.455
 3933WAT     H211822   5.371   1.414   4.567
 3934WAT      O11823   3.920   1.414   4.599
 3934WAT     H111824   3.861   1.400   4.673
 3934WAT     H211825   3.919   1.330   4.552
 3935WAT      O11826   5.201   1.541   4.255
 3935WAT     H111827   5.155   1.616   4.218
 3935WAT     H211828   5.138   1.469   4.249
 3936WAT      O11829   3.883   1.150   4.494
 3936WAT     H111830   3.810   1.088   4.487
 3936WAT     H211831   3.889   1.190   4.407
 3937WAT      O11832   4.243   1.372   4.173
 3937WAT     H111833   4.295   1.310   4.120
 3937WAT     H211834   4.308   1.422   4.222
 3938WAT      O11835   4.517   1.461   4.255
 3938WAT     H111836   4.546   1.435   4.168
 3938WAT     H211837   4.569   1.405   4.314
 3939WAT      O11838   3.711   1.482   3.815
 3939WAT     H111839   3.695   1.419   3.885
 3939WAT     H211840   3.625   1.502   3.780
 3940WAT      O11841   3.872   1.351   3.559
 3940WAT     H111842   3.819   1.389   3.489
 3940WAT     H211843   3.864   1.414   3.632
 3941WAT      O11844   4.524   1.553   4.992
 3941WAT     H111845   4.617   1.529   4.996
 3941WAT     H211846   4.523   1.636   4.944
 3942WAT      O11847   5.348   1.507   3.692
 3942WAT     H111848   5.365   1.438   3.627
 3942WAT     H211849   5.278   1.560   3.652
 3943WAT      O11850   4.132   1.546   3.447
 3943WAT     H111851   4.205   1.518   3.392
 3943WAT     H211852   4.158   1.522   3.536
 3944WAT      O11853   4.048   1.158   3.447
 3944WAT     H111854   3.985   1.205   3.502
 3944WAT     H211855   4.060   1.073   3.491
 3945WAT      O11856   5.181   1.475   4.974
 3945WAT     H111857   5.260   1.426   4.954
 3945WAT     H211858   5.210   1.543   5.035
 3946WAT      O11859   4.794   0.563   2.062
 3946WAT     H111860   4.785   0.471   2.035
 3946WAT     H211861   4.752   0.612   1.992
 3947WAT      O11862   4.607   0.740   2.251
 3947WAT     H111863   4.529   0.693   2.280
 3947WAT     H211864   4.672   0.673   2.233
 3948WAT      O11865   4.008   0.772   2.338
 3948WAT     H111866   3.925   0.746   2.378
 3948WAT     H211867   4.069   0.779   2.412
 3949WAT      O11868   5.009   1.181   2.129
 3949WAT     H111869   4.963   1.104   2.161
 3949WAT     H211870   5.090   1.184   2.179
 3950WAT      O11871   4.006   1.175   2.358
 3950WAT     H111872   4.037   1.086   2.340
 3950WAT     H211873   4.081   1.231   2.335
 3951WAT      O11874   3.849   0.268   1.717
 3951WAT     H111875   3.760   0.302   1.707
 3951WAT     H211876   3.878   0.248   1.628
 3952WAT      O11877   3.646   0.528   2.305
 3952WAT     H111878   3.703   0.451   2.305
 3952WAT     H211879   3.646   0.558   2.214
 3953WAT      O11880   4.631   1.410   2.091
 3953WAT     H111881   4.570   1.455   2.034
 3953WAT     H211882   4.717   1.425   2.050
 3954WAT      O11883   4.551   1.008   2.251
 3954WAT     H111884   4.544   0.914   2.235
 3954WAT     H211885   4.627   1.017   2.308
 3955WAT      O11886   4.654   0.289   2.274
 3955WAT     H111887   4.691   0.201   2.263
 3955WAT     H211888   4.644   0.322   2.185
 3956WAT      O11889   3.832   0.318   2.345
 3956WAT     H111890   3.900   0.345   2.407
 3956WAT     H211891   3.800   0.234   2.378
 3957WAT      O11892   4.251   0.423   2.253
 3957WAT     H111893   4.302   0.473   2.317
 3957WAT     H211894   4.304   0.345   2.236
 3958WAT      O11895   5.461   0.240   2.624
 3958WAT     H111896   5.391   0.279   2.572
 3958WAT     H211897   5.488   0.309   2.684
 3959WAT      O11898   4.718   0.898   1.830
 3959WAT     H111899   4.656   0.945   1.774
 3959WAT     H211900   4.769   0.967   1.872
 3960WAT      O11901   4.204   0.851   2.498
 3960WAT     H111902   4.171   0.914   2.562
 3960WAT     H211903   4.222   0.903   2.420
 3961WAT      O11904   5.056   0.232   2.245
 3961WAT     H111905   4.985   0.261   2.303
 3961WAT     H211906   5.092   0.313   2.208
 3962WAT      O11907   4.126   1.048   2.679
 3962WAT     H111908   4.187   1.115   2.651
 3962WAT     H211909   4.039   1.089   2.670
 3963WAT      O11910   3.655   0.967   1.567
 3963WAT     H111911   3.617   1.016   1.494
 3963WAT     H211912   3.681   1.034   1.630
 3964WAT      O11913   5.217   1.194   2.471
 3964WAT     H111914   5.149   1.261   2.470
 3964WAT     H211915   5.271   1.214   2.394
 3965WAT      O11916   5.363   0.177   2.284
 3965WAT     H111917   5.268   0.180   2.297
 3965WAT     H211918   5.395   0.258   2.322
 3966WAT      O11919   4.971   1.378   2.342
 3966WAT     H111920   4.972   1.338   2.255
 3966WAT     H211921   4.916   1.456   2.332
 3967WAT      O11922   5.100   1.051   1.851
 3967WAT     H111923   5.089   0.956   1.864
 3967WAT     H211924   5.100   1.087   1.940
 3968WAT      O11925   4.911   0.869   2.475
 3968WAT     H111926   4.952   0.847   2.392
 3968WAT     H211927   4.983   0.895   2.532
 3969WAT      O11928   4.655   0.613   1.787
 3969WAT     H111929   4.562   0.607   1.810
 3969WAT     H211930   4.670   0.707   1.775
 3970WAT      O11931   4.653   0.240   1.486
 3970WAT     H111932   4.559   0.257   1.495
 3970WAT     H211933   4.685   0.312   1.432
 3971WAT      O11934   5.305   0.709   2.484
 3971WAT     H111935   5.223   0.716   2.437
 3971WAT     H211936   5.365   0.767   2.437
 3972WAT      O11937   5.058   0.769   1.837
 3972WAT     H111938   4.996   0.736   1.772
 3972WAT     H211939   5.056   0.705   1.908
 3973WAT      O11940   5.002   0.387   2.579
 3973WAT     H111941   4.961   0.470   2.604
 3973WAT     H211942   4.929   0.329   2.560
 3974WAT      O11943   4.215   0.666   2.065
 3974WAT     H111944   4.175   0.595   2.015
 3974WAT     H211945   4.224   0.631   2.154
 3975WAT      O11946   4.262   1.035   2.281
 3975WAT     H111947   4.232   0.974   2.213
 3975WAT     H211948   4.357   1.038   2.270
 3976WAT      O11949   4.086   0.343   2.443
 3976WAT     H111950   4.142   0.354   2.365
 3976WAT     H211951   4.138   0.381   2.514
 3977WAT      O11952   5.071   1.392   2.648
 3977WAT     H111953   5.023   1.473   2.628
 3977WAT     H211954   5.002   1.327   2.663
 3978WAT      O11955   4.171   1.008   2.946
 3978WAT     H111956   4.081   1.031   2.971
 3978WAT     H211957   4.174   1.021   2.852
 3979WAT      O11958   4.875   0.693   1.538
 3979WAT     H111959   4.919   0.610   1.523
 3979WAT     H211960   4.946   0.757   1.546
 3980WAT      O11961   4.054   0.696   2.804
 3980WAT     H111962   4.040   0.783   2.841
 3980WAT     H211963   3.966   0.661   2.789
 3981WAT      O11964   4.686   1.187   1.935
 3981WAT     H111965   4.730   1.262   1.893
 3981WAT     H211966   4.680   1.212   2.027
 3982WAT      O11967   4.234   1.290   3.025
 3982WAT     H111968   4.231   1.330   2.938
 3982WAT     H211969   4.217   1.197   3.009
 3983WAT      O11970   3.885   0.555   1.815
 3983WAT     H111971   3.873   0.628   1.754
 3983WAT     H211972   3.854   0.478   1.767
 3984WAT      O11973   5.429   1.368   3.154
 3984WAT     H111974   5.476   1.416   3.222
 3984WAT     H211975   5.491   1.361   3.082
 3985WAT      O11976   3.649   0.873   2.396
 3985WAT     H111977   3.657   0.886   2.301
 3985WAT     H211978   3.710   0.802   2.415
 3986WAT      O11979   3.774   1.043   2.037
 3986WAT     H111980   3.733   1.057   1.951
 3986WAT     H211981   3.863   1.014   2.016
 3987WAT      O11982   5.369   1.087   2.870
 3987WAT     H111983   5.382   1.063   2.779
 3987WAT     H211984   5.373   1.004   2.918
 3988WAT      O11985   4.755   1.457   2.727
 3988WAT     H111986   4.807   1.449   2.808
 3988WAT     H211987   4.671   1.492   2.757
 3989WAT      O11988   4.953   1.486   1.670
 3989WAT     H111989   4.937   1.457   1.760
 3989WAT     H211990   4.936   1.408   1.617
 3990WAT      O11991   4.201   1.464   1.848
 3990WAT     H111992   4.183   1.372   1.827
 3990WAT     H211993   4.115   1.500   1.872
 3991WAT      O11994   4.923   1.237   1.526
 3991WAT     H111995   4.854   1.237   1.460
 3991WAT     H211996   4.997   1.194   1.483
 3992WAT      O11997   4.880   1.400   1.934
 3992WAT     H111998   4.925   1.321   1.965
 3992WAT     H211999   4.914   1.471   1.988
 3993WAT      O12000   5.354   0.293   2.967
 3993WAT     H112001   5.293   0.343   2.914
 3993WAT     H212002   5.322   0.202   2.961
 3994WAT      O12003   3.655   0.977   2.650
 3994WAT     H112004   3.671   0.930   2.568
 3994WAT     H212005   3.701   0.926   2.716
 3995WAT      O12006   5.061   0.299   2.827
 3995WAT     H112007   4.976   0.269   2.859
 3995WAT     H212008   5.045   0.323   2.735
 3996WAT      O12009   4.770   0.449   3.037
 3996WAT     H112010   4.803   0.365   3.003
 3996WAT     H212011   4.849   0.501   3.051
 3997WAT      O12012   4.111   0.402   1.926
 3997WAT     H112013   4.088   0.380   2.017
 3997WAT     H212014   4.033   0.445   1.892
 3998WAT      O12015   4.834   0.403   1.786
 3998WAT     H112016   4.774   0.475   1.768
 3998WAT     H212017   4.889   0.396   1.708
 3999WAT      O12018   4.355   0.492   2.993
 3999WAT     H112019   4.345   0.398   2.978
 3999WAT     H212020   4.439   0.514   2.953
 4000WAT      O12021   4.695   0.266   1.989
 4000WAT     H112022   4.734   0.298   1.908
 4000WAT     H212023   4.731   0.178   2.000
 4001WAT      O12024   3.617   0.320   1.332
 4001WAT     H112025   3.609   0.414   1.346
 4001WAT     H212026   3.582   0.305   1.244
 4002WAT      O12027   4.753   0.525   2.399
 4002WAT     H112028   4.680   0.576   2.433
 4002WAT     H212029   4.713   0.444   2.368
 4003WAT      O12030   4.403   0.293   1.538
 4003WAT     H112031   4.415   0.289   1.633
 4003WAT     H212032   4.365   0.379   1.523
 4004WAT      O12033   4.304   0.524   1.478
 4004WAT     H112034   4.248   0.479   1.415
 4004WAT     H212035   4.375   0.560   1.425
 4005WAT      O12036   3.812   0.914   2.866
 4005WAT     H112037   3.774   0.850   2.925
 4005WAT     H212038   3.843   0.985   2.923
 4006WAT      O12039   4.427   0.599   2.414
 4006WAT     H112040   4.464   0.552   2.488
 4006WAT     H212041   4.408   0.686   2.448
 4007WAT      O12042   4.206   0.503   2.646
 4007WAT     H112043   4.176   0.591   2.668
 4007WAT     H212044   4.301   0.509   2.649
 4008WAT      O12045   4.059   0.924   1.705
 4008WAT     H112046   3.981   0.870   1.689
 4008WAT     H212047   4.132   0.872   1.671
 4009WAT      O12048   5.135   0.823   2.284
 4009WAT     H112049   5.207   0.873   2.245
 4009WAT     H212050   5.115   0.755   2.220
 4010WAT      O12051   4.673   0.830   2.873
 4010WAT     H112052   4.666   0.738   2.848
 4010WAT     H212053   4.610   0.840   2.945
 4011WAT      O12054   4.952   0.400   1.528
 4011WAT     H112055   5.041   0.431   1.511
 4011WAT     H212056   4.949   0.313   1.489
 4012WAT      O12057   4.063   0.890   2.069
 4012WAT     H112058   4.115   0.810   2.064
 4012WAT     H212059   4.018   0.884   2.153
 4013WAT      O12060   4.552   1.017   1.596
 4013WAT     H112061   4.586   1.092   1.547
 4013WAT     H212062   4.469   1.048   1.633
 4014WAT      O12063   3.812   0.587   2.760
 4014WAT     H112064   3.776   0.654   2.819
 4014WAT     H212065   3.782   0.504   2.797
 4015WAT      O12066   4.132   0.633   3.049
 4015WAT     H112067   4.102   0.647   2.959
 4015WAT     H212068   4.209   0.577   3.039
 4016WAT      O12069   4.666   1.113   2.848
 4016WAT     H112070   4.667   1.019   2.826
 4016WAT     H212071   4.595   1.121   2.912
 4017WAT      O12072   5.179   0.531   1.475
 4017WAT     H112073   5.171   0.574   1.390
 4017WAT     H212074   5.251   0.577   1.518
 4018WAT      O12075   5.287   0.777   2.783
 4018WAT     H112076   5.215   0.836   2.763
 4018WAT     H212077   5.340   0.776   2.703
 4019WAT      O12078   5.282   1.216   1.748
 4019WAT     H112079   5.218   1.151   1.775
 4019WAT     H212080   5.244   1.257   1.670
 4020WAT      O12081   4.840   0.949   2.133
 4020WAT     H112082   4.875   0.890   2.067
 4020WAT     H212083   4.752   0.917   2.150
 4021WAT      O12084   4.449   1.025   1.873
 4021WAT     H112085   4.518   1.080   1.912
 4021WAT     H212086   4.370   1.080   1.877
 4022WAT      O12087   3.663   0.587   1.423
 4022WAT     H112088   3.750   0.615   1.451
 4022WAT     H212089   3.614   0.668   1.411
 4023WAT      O12090   4.379   0.726   1.835
 4023WAT     H112091   4.425   0.807   1.857
 4023WAT     H212092   4.344   0.694   1.918
 4024WAT      O12093   4.609   1.277   2.558
 4024WAT     H112094   4.674   1.297   2.625
 4024WAT     H212095   4.646   1.201   2.512
 4025WAT      O12096   4.737   1.077   2.429
 4025WAT     H112097   4.801   1.007   2.441
 4025WAT     H212098   4.789   1.155   2.411
 4026WAT      O12099   5.121   1.106   1.402
 4026WAT     H112100   5.099   1.034   1.461
 4026WAT     H212101   5.082   1.081   1.318
 4027WAT      O12102   4.914   1.157   2.750
 4027WAT     H112103   4.948   1.216   2.818
 4027WAT     H212104   4.822   1.144   2.773
 4028WAT      O12105   3.699   1.508   1.479
 4028WAT     H112106   3.735   1.568   1.414
 4028WAT     H212107   3.685   1.563   1.557
 4029WAT      O12108   5.079   0.897   1.568
 4029WAT     H112109   5.051   0.943   1.647
 4029WAT     H212110   5.159   0.851   1.595
 4030WAT      O12111   3.698   1.335   2.927
 4030WAT     H112112   3.709   1.241   2.913
 4030WAT     H212113   3.633   1.361   2.862
 4031WAT      O12114   4.497   1.162   3.067
 4031WAT     H112115   4.465   1.090   3.121
 4031WAT     H212116   4.430   1.230   3.074
 4032WAT      O12117   4.301   1.247   1.561
 4032WAT     H112118   4.300   1.320   1.499
 4032WAT     H212119   4.209   1.222   1.570
 4033WAT      O12120   3.861   0.769   1.635
 4033WAT     H112121   3.800   0.843   1.636
 4033WAT     H212122   3.909   0.778   1.553
 4034WAT      O12123   4.600   1.253   1.427
 4034WAT     H112124   4.610   1.232   1.334
 4034WAT     H212125   4.510   1.227   1.448
 4035WAT      O12126   4.352   0.309   1.825
 4035WAT     H112127   4.281   0.356   1.870
 4035WAT     H212128   4.380   0.243   1.889
 4036WAT      O12129   4.515   0.451   2.625
 4036WAT     H112130   4.564   0.498   2.692
 4036WAT     H212131   4.529   0.358   2.646
 4037WAT      O12132   4.464   1.505   1.897
 4037WAT     H112133   4.489   1.501   1.804
 4037WAT     H212134   4.369   1.492   1.896
 4038WAT      O12135   5.064   0.597   2.054
 4038WAT     H112136   4.970   0.598   2.072
 4038WAT     H212137   5.096   0.518   2.099
 4039WAT      O12138   4.062   0.765   1.410
 4039WAT     H112139   4.139   0.754   1.467
 4039WAT     H212140   4.070   0.695   1.345
 4040WAT      O12141   3.932   0.508   1.479
 4040WAT     H112142   3.940   0.413   1.490
 4040WAT     H212143   4.021   0.541   1.489
 4041WAT      O12144   5.265   1.314   2.222
 4041WAT     H112145   5.277   1.396   2.269
 4041WAT     H212146   5.351   1.293   2.187
 4042WAT      O12147   4.012   1.523   2.189
 4042WAT     H112148   4.085   1.468   2.216
 4042WAT     H212149   4.050   1.610   2.175
 4043WAT      O12150   3.700   1.130   1.776
 4043WAT     H112151   3.608   1.154   1.775
 4043WAT     H212152   3.747   1.213   1.764
 4044WAT      O12153   3.912   1.441   3.108
 4044WAT     H112154   3.993   1.474   3.149
 4044WAT     H212155   3.861   1.405   3.180
 4045WAT      O12156   4.323   1.440   1.371
 4045WAT     H112157   4.402   1.469   1.326
 4045WAT     H212158   4.271   1.397   1.303
 4046WAT      O12159   4.796   1.052   3.103
 4046WAT     H112160   4.735   1.055   3.029
 4046WAT     H212161   4.766   0.979   3.156
 4047WAT      O12162   4.939   1.425   2.964
 4047WAT     H112163   5.034   1.417   2.959
 4047WAT     H212164   4.924   1.492   3.031
 4048WAT      O12165   5.228   1.363   1.514
 4048WAT     H112166   5.200   1.322   1.432
 4048WAT     H212167   5.208   1.456   1.502
 4049WAT      O12168   3.684   0.690   3.002
 4049WAT     H112169   3.735   0.632   3.059
 4049WAT     H212170   3.610   0.719   3.056
 4050WAT      O12171   4.375   0.962   1.358
 4050WAT     H112172   4.364   0.901   1.430
 4050WAT     H212173   4.358   0.910   1.279
 4051WAT      O12174   4.390   0.831   2.956
 4051WAT     H112175   4.313   0.888   2.947
 4051WAT     H212176   4.408   0.802   2.866
 4052WAT      O12177   4.699   0.869   1.418
 4052WAT     H112178   4.644   0.913   1.483
 4052WAT     H212179   4.761   0.818   1.470
 4053WAT      O12180   5.104   1.004   3.011
 4053WAT     H112181   5.178   1.038   2.961
 4053WAT     H212182   5.028   1.021   2.956
 4054WAT      O12183   3.888   0.505   3.092
 4054WAT     H112184   3.892   0.475   3.183
 4054WAT     H212185   3.973   0.545   3.076
 4055WAT      O12186   4.265   0.764   1.608
 4055WAT     H112187   4.308   0.748   1.692
 4055WAT     H212188   4.278   0.683   1.558
 4056WAT      O12189   4.082   0.362   2.888
 4056WAT     H112190   4.029   0.313   2.826
 4056WAT     H212191   4.149   0.405   2.835
 4057WAT      O12192   4.517   0.667   1.333
 4057WAT     H112193   4.569   0.595   1.296
 4057WAT     H212194   4.581   0.731   1.363
 4058WAT      O12195   4.971   0.809   2.865
 4058WAT     H112196   5.013   0.825   2.950
 4058WAT     H212197   4.878   0.822   2.881
 4059WAT      O12198   5.019   0.543   3.065
 4059WAT     H112199   5.077   0.468   3.056
 4059WAT     H212200   5.036   0.596   2.988
 4060WAT      O12201   4.448   0.804   2.662
 4060WAT     H112202   4.490   0.889   2.645
 4060WAT     H212203   4.356   0.818   2.639
 4061WAT      O12204   4.681   0.578   2.800
 4061WAT     H112205   4.693   0.518   2.874
 4061WAT     H212206   4.767   0.581   2.758
 4062WAT      O12207   4.915   0.633   2.658
 4062WAT     H112208   4.862   0.685   2.597
 4062WAT     H212209   4.949   0.696   2.721
 4063WAT      O12210   4.155   0.372   1.302
 4063WAT     H112211   4.135   0.285   1.338
 4063WAT     H212212   4.138   0.363   1.209
 4064WAT      O12213   4.233   1.435   2.773
 4064WAT     H112214   4.179   1.507   2.741
 4064WAT     H212215   4.258   1.387   2.694
 4065WAT      O12216   4.358   0.232   2.926
 4065WAT     H112217   4.417   0.201   2.995
 4065WAT     H212218   4.276   0.185   2.942
 4066WAT      O12219   4.518   1.558   2.799
 4066WAT     H112220   4.511   1.649   2.830
 4066WAT     H212221   4.428   1.527   2.796
 4067WAT      O12222   4.573   1.475   1.562
 4067WAT     H112223   4.663   1.509   1.564
 4067WAT     H212224   4.576   1.403   1.499
 4068WAT      O12225   3.937   1.012   1.384
 4068WAT     H112226   3.981   1.067   1.450
 4068WAT     H212227   3.986   0.930   1.385
 4069WAT      O12228   3.659   1.291   2.130
 4069WAT     H112229   3.692   1.204   2.106
 4069WAT     H212230   3.702   1.312   2.213
 4070WAT      O12231   4.118   1.124   1.896
 4070WAT     H112232   4.088   1.112   1.986
 4070WAT     H212233   4.108   1.038   1.855
 4071WAT      O12234   3.708   1.378   2.403
 4071WAT     H112235   3.664   1.396   2.487
 4071WAT     H212236   3.764   1.454   2.389
 4072WAT      O12237   5.271   1.328   2.832
 4072WAT     H112238   5.211   1.334   2.758
 4072WAT     H212239   5.284   1.234   2.845
 4073WAT      O12240   5.395   1.102   1.366
 4073WAT     H112241   5.312   1.109   1.413
 4073WAT     H212242   5.413   1.191   1.336
 4074WAT      O12243   5.341   0.777   1.616
 4074WAT     H112244   5.417   0.834   1.627
 4074WAT     H212245   5.342   0.720   1.693
 4075WAT      O12246   3.691   0.629   2.039
 4075WAT     H112247   3.625   0.602   1.975
 4075WAT     H212248   3.775   0.618   1.994
 4076WAT      O12249   5.441   0.862   2.101
 4076WAT     H112250   5.478   0.784   2.060
 4076WAT     H212251   5.505   0.931   2.083
 4077WAT      O12252   5.140   1.001   2.642
 4077WAT     H112253   5.058   1.044   2.668
 4077WAT     H212254   5.180   1.062   2.581
 4078WAT      O12255   5.346   0.806   1.332
 4078WAT     H112256   5.373   0.897   1.319
 4078WAT     H212257   5.327   0.800   1.426
 4079WAT      O12258   5.336   0.600   1.831
 4079WAT     H112259   5.298   0.523   1.788
 4079WAT     H212260   5.263   0.638   1.880
 4080WAT      O12261   3.795   0.668   2.493
 4080WAT     H112262   3.831   0.659   2.581
 4080WAT     H212263   3.738   0.591   2.483
 4081WAT      O12264   5.275   0.514   2.795
 4081WAT     H112265   5.251   0.492   2.705
 4081WAT     H212266   5.301   0.606   2.790
 4082WAT      O12267   3.750   0.359   2.884
 4082WAT     H112268   3.660   0.355   2.918
 4082WAT     H212269   3.804   0.379   2.960
 4083WAT      O12270   3.612   0.350   1.634
 4083WAT     H112271   3.522   0.376   1.616
 4083WAT     H212272   3.661   0.377   1.556
 4084WAT      O12273   5.263   0.422   2.161
 4084WAT     H112274   5.315   0.373   2.098
 4084WAT     H212275   5.322   0.436   2.236
 4085WAT      O12276   5.281   0.431   2.514
 4085WAT     H112277   5.186   0.427   2.525
 4085WAT     H212278   5.299   0.522   2.490
 4086WAT      O12279   3.866   0.256   1.424
 4086WAT     H112280   3.937   0.214   1.376
 4086WAT     H212281   3.795   0.262   1.361
 4087WAT      O12282   5.212   0.348   1.755
 4087WAT     H112283   5.262   0.325   1.834
 4087WAT     H212284   5.192   0.264   1.714
 4088WAT      O12285   5.145   1.476   1.995
 4088WAT     H112286   5.205   1.444   1.927
 4088WAT     H212287   5.171   1.428   2.074
 4089WAT      O12288   3.936   1.119   3.010
 4089WAT     H112289   3.932   1.082   3.098
 4089WAT     H212290   3.949   1.213   3.024
 4090WAT      O12291   4.306   1.274   2.570
 4090WAT     H112292   4.282   1.301   2.481
 4090WAT     H212293   4.400   1.292   2.575
 4091WAT      O12294   5.432   1.476   2.650
 4091WAT     H112295   5.383   1.516   2.578
 4091WAT     H212296   5.371   1.414   2.689
 4092WAT      O12297   3.920   1.414   2.722
 4092WAT     H112298   3.861   1.400   2.795
 4092WAT     H212299   3.919   1.330   2.675
 4093WAT      O12300   5.201   1.541   2.378
 4093WAT     H112301   5.155   1.616   2.340
 4093WAT     H212302   5.138   1.469   2.372
 4094WAT      O12303   3.883   1.150   2.617
 4094WAT     H112304   3.810   1.088   2.610
 4094WAT     H212305   3.889   1.190   2.530
 4095WAT      O12306   4.243   1.372   2.295
 4095WAT     H112307   4.295   1.310   2.243
 4095WAT     H212308   4.308   1.422   2.344
 4096WAT      O12309   4.517   1.461   2.378
 4096WAT     H112310   4.546   1.435   2.290
 4096WAT     H212311   4.569   1.405   2.437
 4097WAT      O12312   3.711   1.482   1.938
 4097WAT     H112313   3.695   1.419   2.007
 4097WAT     H212314   3.625   1.502   1.902
 4098WAT      O12315   3.872   1.351   1.682
 4098WAT     H112316   3.819   1.389   1.612
 4098WAT     H212317   3.864   1.414   1.754
 4099WAT      O12318   4.524   1.553   3.114
 4099WAT     H112319   4.617   1.529   3.119
 4099WAT     H212320   4.523   1.636   3.066
 4100WAT      O12321   5.348   1.507   1.814
 4100WAT     H112322   5.365   1.438   1.750
 4100WAT     H212323   5.278   1.560   1.775
 4101WAT      O12324   4.132   1.546   1.570
 4101WAT     H112325   4.205   1.518   1.515
 4101WAT     H212326   4.158   1.522   1.659
 4102WAT      O12327   4.048   1.158   1.570
 4102WAT     H112328   3.985   1.205   1.625
 4102WAT     H212329   4.060   1.073   1.613
 4103WAT      O12330   5.181   1.475   3.097
 4103WAT     H112331   5.260   1.426   3.076
 4103WAT     H212332   5.210   1.543   3.158
 4104WAT      O12333   4.607   0.740   0.373
 4104WAT     H112334   4.529   0.693   0.402
 4104WAT     H212335   4.672   0.673   0.356
 4105WAT      O12336   4.008   0.772   0.461
 4105WAT     H112337   3.925   0.746   0.501
 4105WAT     H212338   4.069   0.779   0.534
 4106WAT      O12339   5.009   1.181   0.251
 4106WAT     H112340   4.963   1.104   0.284
 4106WAT     H212341   5.090   1.184   0.302
 4107WAT      O12342   4.006   1.175   0.480
 4107WAT     H112343   4.037   1.086   0.463
 4107WAT     H212344   4.081   1.231   0.458
 4108WAT      O12345   3.646   0.528   0.428
 4108WAT     H112346   3.703   0.451   0.428
 4108WAT     H212347   3.646   0.558   0.337
 4109WAT      O12348   4.551   1.008   0.374
 4109WAT     H112349   4.544   0.914   0.358
 4109WAT     H212350   4.627   1.017   0.431
 4110WAT      O12351   4.654   0.289   0.397
 4110WAT     H112352   4.691   0.201   0.385
 4110WAT     H212353   4.644   0.322   0.307
 4111WAT      O12354   3.832   0.318   0.467
 4111WAT     H112355   3.900   0.345   0.529
 4111WAT     H212356   3.800   0.234   0.501
 4112WAT      O12357   4.251   0.423   0.376
 4112WAT     H112358   4.302   0.473   0.440
 4112WAT     H212359   4.304   0.345   0.358
 4113WAT      O12360   5.461   0.240   0.746
 4113WAT     H112361   5.391   0.279   0.694
 4113WAT     H212362   5.488   0.309   0.806
 4114WAT      O12363   4.204   0.851   0.620
 4114WAT     H112364   4.171   0.914   0.685
 4114WAT     H212365   4.222   0.903   0.542
 4115WAT      O12366   5.056   0.232   0.367
 4115WAT     H112367   4.985   0.261   0.425
 4115WAT     H212368   5.092   0.313   0.331
 4116WAT      O12369   4.126   1.048   0.802
 4116WAT     H112370   4.187   1.115   0.774
 4116WAT     H212371   4.039   1.089   0.793
 4117WAT      O12372   5.217   1.194   0.593
 4117WAT     H112373   5.149   1.261   0.593
 4117WAT     H212374   5.271   1.214   0.517
 4118WAT      O12375   5.363   0.177   0.406
 4118WAT     H112376   5.268   0.180   0.419
 4118WAT     H212377   5.395   0.258   0.445
 4119WAT      O12378   4.971   1.378   0.465
 4119WAT     H112379   4.972   1.338   0.378
 4119WAT     H212380   4.916   1.456   0.454
 4120WAT      O12381   4.911   0.869   0.598
 4120WAT     H112382   4.952   0.847   0.514
 4120WAT     H212383   4.983   0.895   0.655
 4121WAT      O12384   5.305   0.709   0.607
 4121WAT     H112385   5.223   0.716   0.559
 4121WAT     H212386   5.365   0.767   0.560
 4122WAT      O12387   5.002   0.387   0.701
 4122WAT     H112388   4.961   0.470   0.727
 4122WAT     H212389   4.929   0.329   0.682
 4123WAT      O12390   4.262   1.035   0.404
 4123WAT     H112391   4.232   0.974   0.336
 4123WAT     H212392   4.357   1.038   0.393
 4124WAT      O12393   4.086   0.343   0.566
 4124WAT     H112394   4.142   0.354   0.488
 4124WAT     H212395   4.138   0.381   0.637
 4125WAT      O12396   5.071   1.392   0.770
 4125WAT     H112397   5.023   1.473   0.751
 4125WAT     H212398   5.002   1.327   0.785
 4126WAT      O12399   4.171   1.008   1.069
 4126WAT     H112400   4.081   1.031   1.094
 4126WAT     H212401   4.174   1.021   0.974
 4127WAT      O12402   4.054   0.696   0.927
 4127WAT     H112403   4.040   0.783   0.963
 4127WAT     H212404   3.966   0.661   0.912
 4128WAT      O12405   4.234   1.290   1.147
 4128WAT     H112406   4.231   1.330   1.061
 4128WAT     H212407   4.217   1.197   1.131
 4129WAT      O12408   5.429   1.368   1.277
 4129WAT     H112409   5.476   1.416   1.345
 4129WAT     H212410   5.491   1.361   1.205
 4130WAT      O12411   3.649   0.873   0.518
 4130WAT     H112412   3.657   0.886   0.424
 4130WAT     H212413   3.710   0.802   0.538
 4131WAT      O12414   5.369   1.087   0.993
 4131WAT     H112415   5.382   1.063   0.901
 4131WAT     H212416   5.373   1.004   1.040
 4132WAT      O12417   4.755   1.457   0.850
 4132WAT     H112418   4.807   1.449   0.930
 4132WAT     H212419   4.671   1.492   0.879
 4133WAT      O12420   5.354   0.293   1.090
 4133WAT     H112421   5.293   0.343   1.037
 4133WAT     H212422   5.322   0.202   1.084
 4134WAT      O12423   3.655   0.977   0.772
 4134WAT     H112424   3.671   0.930   0.690
 4134WAT     H212425   3.701   0.926   0.839
 4135WAT      O12426   5.061   0.299   0.949
 4135WAT     H112427   4.976   0.269   0.981
 4135WAT     H212428   5.045   0.323   0.858
 4136WAT      O12429   4.770   0.449   1.159
 4136WAT     H112430   4.803   0.365   1.125
 4136WAT     H212431   4.849   0.501   1.174
 4137WAT      O12432   4.355   0.492   1.115
 4137WAT     H112433   4.345   0.398   1.100
 4137WAT     H212434   4.439   0.514   1.076
 4138WAT      O12435   4.753   0.525   0.521
 4138WAT     H112436   4.680   0.576   0.556
 4138WAT     H212437   4.713   0.444   0.491
 4139WAT      O12438   3.812   0.914   0.988
 4139WAT     H112439   3.774   0.850   1.048
 4139WAT     H212440   3.843   0.985   1.045
 4140WAT      O12441   4.427   0.599   0.536
 4140WAT     H112442   4.464   0.552   0.611
 4140WAT     H212443   4.408   0.686   0.570
 4141WAT      O12444   4.206   0.503   0.768
 4141WAT     H112445   4.176   0.591   0.791
 4141WAT     H212446   4.301   0.509   0.772
 4142WAT      O12447   5.135   0.823   0.407
 4142WAT     H112448   5.207   0.873   0.368
 4142WAT     H212449   5.115   0.755   0.343
 4143WAT      O12450   4.673   0.830   0.996
 4143WAT     H112451   4.666   0.738   0.970
 4143WAT     H212452   4.610   0.840   1.067
 4144WAT      O12453   4.063   0.890   0.192
 4144WAT     H112454   4.115   0.810   0.186
 4144WAT     H212455   4.018   0.884   0.276
 4145WAT      O12456   3.812   0.587   0.883
 4145WAT     H112457   3.776   0.654   0.942
 4145WAT     H212458   3.782   0.504   0.920
 4146WAT      O12459   4.132   0.633   1.171
 4146WAT     H112460   4.102   0.647   1.081
 4146WAT     H212461   4.209   0.577   1.162
 4147WAT      O12462   4.666   1.113   0.971
 4147WAT     H112463   4.667   1.019   0.949
 4147WAT     H212464   4.595   1.121   1.035
 4148WAT      O12465   5.287   0.777   0.905
 4148WAT     H112466   5.215   0.836   0.886
 4148WAT     H212467   5.340   0.776   0.826
 4149WAT      O12468   4.840   0.949   0.255
 4149WAT     H112469   4.875   0.890   0.189
 4149WAT     H212470   4.752   0.917   0.272
 4150WAT      O12471   4.609   1.277   0.680
 4150WAT     H112472   4.674   1.297   0.748
 4150WAT     H212473   4.646   1.201   0.635
 4151WAT      O12474   4.737   1.077   0.552
 4151WAT     H112475   4.801   1.007   0.563
 4151WAT     H212476   4.789   1.155   0.534
 4152WAT      O12477   4.914   1.157   0.872
 4152WAT     H112478   4.948   1.216   0.940
 4152WAT     H212479   4.822   1.144   0.895
 4153WAT      O12480   3.698   1.335   1.049
 4153WAT     H112481   3.709   1.241   1.035
 4153WAT     H212482   3.633   1.361   0.984
 4154WAT      O12483   4.497   1.162   1.189
 4154WAT     H112484   4.465   1.090   1.244
 4154WAT     H212485   4.430   1.230   1.197
 4155WAT      O12486   4.515   0.451   0.748
 4155WAT     H112487   4.564   0.498   0.814
 4155WAT     H212488   4.529   0.358   0.769
 4156WAT      O12489   5.064   0.597   0.177
 4156WAT     H112490   4.970   0.598   0.194
 4156WAT     H212491   5.096   0.518   0.221
 4157WAT      O12492   5.265   1.314   0.344
 4157WAT     H112493   5.277   1.396   0.392
 4157WAT     H212494   5.351   1.293   0.310
 4158WAT      O12495   4.012   1.523   0.312
 4158WAT     H112496   4.085   1.468   0.339
 4158WAT     H212497   4.050   1.610   0.298
 4159WAT      O12498   3.912   1.441   1.230
 4159WAT     H112499   3.993   1.474   1.272
 4159WAT     H212500   3.861   1.405   1.303
 4160WAT      O12501   4.796   1.052   1.225
 4160WAT     H112502   4.735   1.055   1.151
 4160WAT     H212503   4.766   0.979   1.279
 4161WAT      O12504   4.939   1.425   1.086
 4161WAT     H112505   5.034   1.417   1.081
 4161WAT     H212506   4.924   1.492   1.154
 4162WAT      O12507   3.684   0.690   1.125
 4162WAT     H112508   3.735   0.632   1.182
 4162WAT     H212509   3.610   0.719   1.179
 4163WAT      O12510   4.390   0.831   1.078
 4163WAT     H112511   4.313   0.888   1.070
 4163WAT     H212512   4.408   0.802   0.989
 4164WAT      O12513   5.104   1.004   1.134
 4164WAT     H112514   5.178   1.038   1.084
 4164WAT     H212515   5.028   1.021   1.079
 4165WAT      O12516   3.888   0.505   1.214
 4165WAT     H112517   3.892   0.475   1.305
 4165WAT     H212518   3.973   0.545   1.198
 4166WAT      O12519   4.082   0.362   1.011
 4166WAT     H112520   4.029   0.313   0.948
 4166WAT     H212521   4.149   0.405   0.958
 4167WAT      O12522   4.971   0.809   0.987
 4167WAT     H112523   5.013   0.825   1.072
 4167WAT     H212524   4.878   0.822   1.004
 4168WAT      O12525   5.019   0.543   1.188
 4168WAT     H112526   5.077   0.468   1.179
 4168WAT     H212527   5.036   0.596   1.110
 4169WAT      O12528   4.448   0.804   0.784
 4169WAT     H112529   4.490   0.889   0.767
 4169WAT     H212530   4.356   0.818   0.761
 4170WAT      O12531   4.681   0.578   0.923
 4170WAT     H112532   4.693   0.518   0.997
 4170WAT     H212533   4.767   0.581   0.881
 4171WAT      O12534   4.915   0.633   0.780
 4171WAT     H112535   4.862   0.685   0.720
 4171WAT     H212536   4.949   0.696   0.843
 4172WAT      O12537   4.233   1.435   0.896
 4172WAT     H112538   4.179   1.507   0.864
 4172WAT     H212539   4.258   1.387   0.817
 4173WAT      O12540   4.358   0.232   1.049
 4173WAT     H112541   4.417   0.201   1.117
 4173WAT     H212542   4.276   0.185   1.064
 4174WAT      O12543   4.518   1.558   0.922
 4174WAT     H112544   4.511   1.649   0.953
 4174WAT     H212545   4.428   1.527   0.919
 4175WAT      O12546   3.659   1.291   0.252
 4175WAT     H112547   3.692   1.204   0.229
 4175WAT     H212548   3.702   1.312   0.335
 4176WAT      O12549   3.708   1.378   0.526
 4176WAT     H112550   3.664   1.396   0.609
 4176WAT     H212551   3.764   1.454   0.512
 4177WAT      O12552   5.271   1.328   0.955
 4177WAT     H112553   5.211   1.334   0.880
 4177WAT     H212554   5.284   1.234   0.968
 4178WAT      O12555   5.441   0.862   0.223
 4178WAT     H112556   5.478   0.784   0.183
 4178WAT     H212557   5.505   0.931   0.205
 4179WAT      O12558   5.140   1.001   0.765
 4179WAT     H112559   5.058   1.044   0.791
 4179WAT     H212560   5.180   1.062   0.703
 4180WAT      O12561   3.795   0.668   0.616
 4180WAT     H112562   3.831   0.659   0.704
 4180WAT     H212563   3.738   0.591   0.606
 4181WAT      O12564   5.275   0.514   0.917
 4181WAT     H112565   5.251   0.492   0.827
 4181WAT     H212566   5.301   0.606   0.913
 4182WAT      O12567   3.750   0.359   1.006
 4182WAT     H112568   3.660   0.355   1.040
 4182WAT     H212569   3.804   0.379   1.083
 4183WAT      O12570   5.263   0.422   0.284
 4183WAT     H112571   5.315   0.373   0.221
 4183WAT     H212572   5.322   0.436   0.358
 4184WAT      O12573   5.281   0.431   0.636
 4184WAT     H112574   5.186   0.427   0.648
 4184WAT     H212575   5.299   0.522   0.613
 4185WAT      O12576   3.936   1.119   1.132
 4185WAT     H112577   3.932   1.082   1.220
 4185WAT     H212578   3.949   1.213   1.146
 4186WAT      O12579   4.306   1.274   0.692
 4186WAT     H112580   4.282   1.301   0.603
 4186WAT     H212581   4.400   1.292   0.698
 4187WAT      O12582   5.432   1.476   0.772
 4187WAT     H112583   5.383   1.516   0.701
 4187WAT     H212584   5.371   1.414   0.812
 4188WAT      O12585   3.920   1.414   0.844
 4188WAT     H112586   3.861   1.400   0.918
 4188WAT     H212587   3.919   1.330   0.797
 4189WAT      O12588   5.201   1.541   0.500
 4189WAT     H112589   5.155   1.616   0.463
 4189WAT     H212590   5.138   1.469   0.494
 4190WAT      O12591   3.883   1.150   0.739
 4190WAT     H112592   3.810   1.088   0.732
 4190WAT     H212593   3.889   1.190   0.652
 4191WAT      O12594   4.243   1.372   0.418
 4191WAT     H112595   4.295   1.310   0.365
 4191WAT     H212596   4.308   1.422   0.467
 4192WAT      O12597   4.517   1.461   0.500
 4192WAT     H112598   4.546   1.435   0.413
 4192WAT     H212599   4.569   1.405   0.559
 4193WAT      O12600   4.524   1.553   1.237
 4193WAT     H112601   4.617   1.529   1.241
 4193WAT     H212602   4.523   1.636   1.189
 4194WAT      O12603   5.181   1.475   1.219
 4194WAT     H112604   5.260   1.426   1.199
 4194WAT     H212605   5.210   1.543   1.280
 4195WAT      O12606   2.916   6.195   5.817
 4195WAT     H112607   2.908   6.104   5.790
 4195WAT     H212608   2.875   6.245   5.747
 4196WAT      O12609   2.729   6.373   6.005
 4196WAT     H112610   2.652   6.325   6.034
 4196WAT     H212611   2.794   6.305   5.988
 4197WAT      O12612   1.972   5.900   5.472
 4197WAT     H112613   1.883   5.934   5.461
 4197WAT     H212614   2.000   5.880   5.382
 4198WAT      O12615   1.768   6.160   6.060
 4198WAT     H112616   1.825   6.083   6.060
 4198WAT     H212617   1.768   6.190   5.969
 4199WAT      O12618   2.673   6.640   6.006
 4199WAT     H112619   2.666   6.546   5.990
 4199WAT     H212620   2.750   6.649   6.063
 4200WAT      O12621   2.776   5.921   6.029
 4200WAT     H112622   2.814   5.834   6.018
 4200WAT     H212623   2.767   5.955   5.940
 4201WAT      O12624   2.189   5.758   5.575
 4201WAT     H112625   2.200   5.848   5.606
 4201WAT     H212626   2.098   5.754   5.546
 4202WAT      O12627   3.155   5.671   5.722
 4202WAT     H112628   3.237   5.622   5.726
 4202WAT     H212629   3.158   5.730   5.797
 4203WAT      O12630   2.374   6.055   6.008
 4203WAT     H112631   2.424   6.105   6.072
 4203WAT     H212632   2.427   5.978   5.991
 4204WAT      O12633   2.841   6.530   5.585
 4204WAT     H112634   2.779   6.577   5.528
 4204WAT     H212635   2.892   6.600   5.626
 4205WAT      O12636   3.178   5.865   5.999
 4205WAT     H112637   3.108   5.893   6.057
 4205WAT     H212638   3.214   5.946   5.963
 4206WAT      O12639   1.777   6.599   5.322
 4206WAT     H112640   1.740   6.648   5.249
 4206WAT     H212641   1.803   6.666   5.385
 4207WAT      O12642   3.485   5.809   6.038
 4207WAT     H112643   3.390   5.813   6.052
 4207WAT     H212644   3.518   5.891   6.077
 4208WAT      O12645   2.538   5.439   5.868
 4208WAT     H112646   2.569   5.384   5.796
 4208WAT     H212647   2.445   5.453   5.850
 4209WAT      O12648   3.223   6.683   5.606
 4209WAT     H112649   3.212   6.589   5.618
 4209WAT     H212650   3.223   6.719   5.695
 4210WAT      O12651   2.777   6.246   5.542
 4210WAT     H112652   2.684   6.239   5.565
 4210WAT     H212653   2.792   6.339   5.530
 4211WAT      O12654   2.776   5.873   5.241
 4211WAT     H112655   2.682   5.889   5.250
 4211WAT     H212656   2.808   5.945   5.187
 4212WAT      O12657   3.180   6.402   5.592
 4212WAT     H112658   3.118   6.368   5.527
 4212WAT     H212659   3.178   6.337   5.663
 4213WAT      O12660   2.338   6.298   5.820
 4213WAT     H112661   2.297   6.227   5.770
 4213WAT     H212662   2.346   6.264   5.909
 4214WAT      O12663   2.385   6.667   6.036
 4214WAT     H112664   2.355   6.606   5.968
 4214WAT     H212665   2.480   6.671   6.025
 4215WAT      O12666   2.998   6.326   5.293
 4215WAT     H112667   3.042   6.242   5.278
 4215WAT     H212668   3.069   6.389   5.301
 4216WAT      O12669   3.356   5.451   5.124
 4216WAT     H112670   3.325   5.460   5.214
 4216WAT     H212671   3.432   5.509   5.119
 4217WAT      O12672   2.008   6.188   5.570
 4217WAT     H112673   1.996   6.260   5.509
 4217WAT     H212674   1.977   6.111   5.522
 4218WAT      O12675   1.896   6.675   5.792
 4218WAT     H112676   1.855   6.689   5.706
 4218WAT     H212677   1.985   6.646   5.771
 4219WAT      O12678   2.254   5.522   5.908
 4219WAT     H112679   2.210   5.600   5.875
 4219WAT     H212680   2.310   5.554   5.979
 4220WAT      O12681   2.566   5.484   5.396
 4220WAT     H112682   2.504   5.484   5.469
 4220WAT     H212683   2.557   5.397   5.357
 4221WAT      O12684   2.458   5.577   6.094
 4221WAT     H112685   2.488   5.667   6.086
 4221WAT     H212686   2.513   5.528   6.033
 4222WAT      O12687   2.234   6.034   5.681
 4222WAT     H112688   2.211   6.013   5.771
 4222WAT     H212689   2.155   6.078   5.646
 4223WAT      O12690   2.957   6.035   5.541
 4223WAT     H112691   2.897   6.107   5.522
 4223WAT     H212692   3.011   6.029   5.463
 4224WAT      O12693   2.817   5.899   5.744
 4224WAT     H112694   2.856   5.930   5.663
 4224WAT     H212695   2.853   5.811   5.755
 4225WAT      O12696   1.721   5.558   5.966
 4225WAT     H112697   1.692   5.615   6.037
 4225WAT     H212698   1.795   5.510   6.002
 4226WAT      O12699   1.740   5.952   5.087
 4226WAT     H112700   1.731   6.046   5.101
 4226WAT     H212701   1.704   5.938   4.999
 4227WAT      O12702   2.519   5.825   5.994
 4227WAT     H112703   2.520   5.781   5.909
 4227WAT     H212704   2.609   5.857   6.005
 4228WAT      O12705   2.105   5.814   5.890
 4228WAT     H112706   2.071   5.861   5.966
 4228WAT     H212707   2.028   5.768   5.854
 4229WAT      O12708   2.526   5.925   5.293
 4229WAT     H112709   2.538   5.921   5.388
 4229WAT     H212710   2.487   6.012   5.277
 4230WAT      O12711   2.427   6.156   5.233
 4230WAT     H112712   2.370   6.112   5.170
 4230WAT     H212713   2.498   6.192   5.179
 4231WAT      O12714   1.836   5.706   5.782
 4231WAT     H112715   1.807   5.669   5.865
 4231WAT     H212716   1.830   5.633   5.720
 4232WAT      O12717   2.181   6.556   5.460
 4232WAT     H112718   2.104   6.502   5.444
 4232WAT     H212719   2.254   6.504   5.426
 4233WAT      O12720   3.257   6.456   6.039
 4233WAT     H112721   3.329   6.505   6.000
 4233WAT     H212722   3.237   6.388   5.975
 4234WAT      O12723   2.803   5.595   5.454
 4234WAT     H112724   2.722   5.545   5.446
 4234WAT     H212725   2.784   5.679   5.412
 4235WAT      O12726   3.075   6.032   5.283
 4235WAT     H112727   3.164   6.063   5.266
 4235WAT     H212728   3.072   5.945   5.244
 4236WAT      O12729   2.186   6.523   5.824
 4236WAT     H112730   2.238   6.442   5.818
 4236WAT     H212731   2.141   6.517   5.908
 4237WAT      O12732   2.674   6.649   5.351
 4237WAT     H112733   2.709   6.724   5.302
 4237WAT     H212734   2.592   6.681   5.387
 4238WAT      O12735   3.302   6.163   5.230
 4238WAT     H112736   3.294   6.206   5.145
 4238WAT     H212737   3.374   6.209   5.273
 4239WAT      O12738   2.963   6.582   5.888
 4239WAT     H112739   2.998   6.522   5.822
 4239WAT     H212740   2.874   6.549   5.905
 4240WAT      O12741   2.571   6.658   5.628
 4240WAT     H112742   2.640   6.712   5.666
 4240WAT     H212743   2.493   6.712   5.632
 4241WAT      O12744   1.785   6.219   5.177
 4241WAT     H112745   1.872   6.248   5.206
 4241WAT     H212746   1.736   6.301   5.166
 4242WAT      O12747   2.502   6.358   5.590
 4242WAT     H112748   2.547   6.439   5.612
 4242WAT     H212749   2.467   6.326   5.673
 4243WAT      O12750   2.092   5.392   5.637
 4243WAT     H112751   2.079   5.392   5.732
 4243WAT     H212752   2.009   5.426   5.602
 4244WAT      O12753   3.244   6.738   5.157
 4244WAT     H112754   3.221   6.666   5.216
 4244WAT     H212755   3.205   6.713   5.073
 4245WAT      O12756   3.202   6.530   5.323
 4245WAT     H112757   3.173   6.576   5.402
 4245WAT     H212758   3.282   6.484   5.350
 4246WAT      O12759   1.984   6.401   5.390
 4246WAT     H112760   1.923   6.475   5.391
 4246WAT     H212761   2.031   6.410   5.308
 4247WAT      O12762   3.278   5.713   5.439
 4247WAT     H112763   3.215   5.724   5.367
 4247WAT     H212764   3.228   5.735   5.518
 4248WAT      O12765   2.475   5.941   5.580
 4248WAT     H112766   2.404   5.988   5.624
 4248WAT     H212767   2.503   5.875   5.644
 4249WAT      O12768   2.878   5.613   5.724
 4249WAT     H112769   2.865   5.615   5.629
 4249WAT     H212770   2.973   5.618   5.736
 4250WAT      O12771   2.295   5.772   5.318
 4250WAT     H112772   2.380   5.816   5.311
 4250WAT     H212773   2.258   5.803   5.401
 4251WAT      O12774   3.187   6.229   5.809
 4251WAT     H112775   3.093   6.230   5.827
 4251WAT     H212776   3.218   6.150   5.854
 4252WAT      O12777   2.185   6.397   5.165
 4252WAT     H112778   2.261   6.386   5.221
 4252WAT     H212779   2.193   6.328   5.100
 4253WAT      O12780   2.054   6.140   5.234
 4253WAT     H112781   2.062   6.046   5.245
 4253WAT     H212782   2.143   6.173   5.244
 4254WAT      O12783   2.497   6.595   5.113
 4254WAT     H112784   2.487   6.533   5.185
 4254WAT     H212785   2.480   6.542   5.034
 4255WAT      O12786   2.821   6.501   5.173
 4255WAT     H112787   2.766   6.546   5.237
 4255WAT     H212788   2.883   6.450   5.225
 4256WAT      O12789   2.388   6.397   5.363
 4256WAT     H112790   2.430   6.380   5.447
 4256WAT     H212791   2.400   6.316   5.313
 4257WAT      O12792   2.639   6.299   5.087
 4257WAT     H112793   2.691   6.228   5.051
 4257WAT     H212794   2.704   6.363   5.117
 4258WAT      O12795   2.278   6.004   5.057
 4258WAT     H112796   2.257   5.918   5.093
 4258WAT     H212797   2.260   5.995   4.963
 4259WAT      O12798   3.025   5.485   5.310
 4259WAT     H112799   3.053   5.401   5.346
 4259WAT     H212800   2.948   5.508   5.361
 4260WAT      O12801   2.157   5.714   5.056
 4260WAT     H112802   2.188   5.715   4.965
 4260WAT     H212803   2.231   5.679   5.106
 4261WAT      O12804   2.479   5.608   5.155
 4261WAT     H112805   2.444   5.541   5.097
 4261WAT     H212806   2.499   5.562   5.236
 4262WAT      O12807   2.060   6.645   5.139
 4262WAT     H112808   2.103   6.699   5.205
 4262WAT     H212809   2.108   6.562   5.140
 4263WAT      O12810   3.463   6.409   5.371
 4263WAT     H112811   3.539   6.466   5.382
 4263WAT     H212812   3.465   6.352   5.448
 4264WAT      O12813   1.813   6.261   5.794
 4264WAT     H112814   1.748   6.234   5.730
 4264WAT     H212815   1.897   6.250   5.749
 4265WAT      O12816   3.564   6.494   5.856
 4265WAT     H112817   3.601   6.416   5.815
 4265WAT     H212818   3.628   6.563   5.838
 4266WAT      O12819   3.468   6.438   5.087
 4266WAT     H112820   3.496   6.529   5.074
 4266WAT     H212821   3.450   6.432   5.180
 4267WAT      O12822   3.108   5.741   5.216
 4267WAT     H112823   3.150   5.722   5.132
 4267WAT     H212824   3.078   5.656   5.247
 4268WAT      O12825   3.458   6.232   5.586
 4268WAT     H112826   3.421   6.155   5.543
 4268WAT     H212827   3.385   6.270   5.635
 4269WAT      O12828   1.735   5.982   5.388
 4269WAT     H112829   1.644   6.009   5.371
 4269WAT     H212830   1.783   6.009   5.310
 4270WAT      O12831   3.386   6.055   5.916
 4270WAT     H112832   3.438   6.005   5.853
 4270WAT     H212833   3.444   6.068   5.991
 4271WAT      O12834   1.989   5.888   5.179
 4271WAT     H112835   2.060   5.846   5.131
 4271WAT     H212836   1.917   5.895   5.116
 4272WAT      O12837   1.954   5.493   5.083
 4272WAT     H112838   2.026   5.547   5.115
 4272WAT     H212839   1.981   5.466   4.996
 4273WAT      O12840   3.335   5.980   5.510
 4273WAT     H112841   3.384   5.957   5.589
 4273WAT     H212842   3.315   5.896   5.468
 4274WAT      O12843   3.477   5.844   5.763
 4274WAT     H112844   3.466   5.828   5.857
 4274WAT     H212845   3.554   5.791   5.739
 4275WAT      O12846   3.566   5.627   5.088
 4275WAT     H112847   3.659   5.614   5.067
 4275WAT     H212848   3.564   5.635   5.183
 4276WAT      O12849   3.574   5.704   5.350
 4276WAT     H112850   3.494   5.698   5.403
 4276WAT     H212851   3.594   5.798   5.349
 4277WAT      O12852   3.217   5.537   5.995
 4277WAT     H112853   3.261   5.532   5.910
 4277WAT     H212854   3.190   5.629   6.002
 4278WAT      O12855   3.403   5.500   5.796
 4278WAT     H112856   3.397   5.406   5.781
 4278WAT     H212857   3.481   5.511   5.851
 4279WAT      O12858   1.896   5.497   5.443
 4279WAT     H112859   1.972   5.509   5.385
 4279WAT     H212860   1.850   5.581   5.438
 4280WAT      O12861   2.550   5.709   5.742
 4280WAT     H112862   2.469   5.671   5.708
 4280WAT     H212863   2.601   5.633   5.772
 4281WAT      O12864   3.001   5.375   5.866
 4281WAT     H112865   3.061   5.432   5.913
 4281WAT     H212866   2.926   5.432   5.843
 4282WAT      O12867   3.315   5.415   5.393
 4282WAT     H112868   3.334   5.505   5.420
 4282WAT     H212869   3.236   5.392   5.442
 4283WAT      O12870   2.133   5.550   5.297
 4283WAT     H112871   2.186   5.471   5.284
 4283WAT     H212872   2.197   5.618   5.320
 4284WAT      O12873   2.353   5.524   5.602
 4284WAT     H112874   2.290   5.454   5.619
 4284WAT     H212875   2.299   5.600   5.581
 4285WAT      O12876   2.916   6.195   3.940
 4285WAT     H112877   2.908   6.104   3.913
 4285WAT     H212878   2.875   6.245   3.869
 4286WAT      O12879   2.729   6.373   4.128
 4286WAT     H112880   2.652   6.325   4.157
 4286WAT     H212881   2.794   6.305   4.111
 4287WAT      O12882   2.131   6.404   4.216
 4287WAT     H112883   2.048   6.378   4.256
 4287WAT     H212884   2.192   6.411   4.289
 4288WAT      O12885   1.972   5.900   3.594
 4288WAT     H112886   1.883   5.934   3.584
 4288WAT     H212887   2.000   5.880   3.505
 4289WAT      O12888   1.768   6.160   4.183
 4289WAT     H112889   1.825   6.083   4.183
 4289WAT     H212890   1.768   6.190   4.092
 4290WAT      O12891   2.673   6.640   4.129
 4290WAT     H112892   2.666   6.546   4.113
 4290WAT     H212893   2.750   6.649   4.186
 4291WAT      O12894   1.892   5.701   4.361
 4291WAT     H112895   1.874   5.611   4.389
 4291WAT     H212896   1.852   5.756   4.429
 4292WAT      O12897   2.776   5.921   4.151
 4292WAT     H112898   2.814   5.834   4.140
 4292WAT     H212899   2.767   5.955   4.062
 4293WAT      O12900   2.189   5.758   3.698
 4293WAT     H112901   2.200   5.848   3.728
 4293WAT     H212902   2.098   5.754   3.669
 4294WAT      O12903   3.155   5.671   3.845
 4294WAT     H112904   3.237   5.622   3.849
 4294WAT     H212905   3.158   5.730   3.920
 4295WAT      O12906   1.954   5.951   4.222
 4295WAT     H112907   2.022   5.977   4.284
 4295WAT     H212908   1.923   5.867   4.255
 4296WAT      O12909   2.374   6.055   4.131
 4296WAT     H112910   2.424   6.105   4.195
 4296WAT     H212911   2.427   5.978   4.113
 4297WAT      O12912   3.584   5.872   4.501
 4297WAT     H112913   3.513   5.911   4.449
 4297WAT     H212914   3.610   5.942   4.561
 4298WAT      O12915   2.202   5.519   4.557
 4298WAT     H112916   2.202   5.571   4.477
 4298WAT     H212917   2.119   5.471   4.555
 4299WAT      O12918   2.841   6.530   3.707
 4299WAT     H112919   2.779   6.577   3.651
 4299WAT     H212920   2.892   6.600   3.749
 4300WAT      O12921   2.327   6.483   4.375
 4300WAT     H112922   2.294   6.546   4.439
 4300WAT     H212923   2.345   6.536   4.297
 4301WAT      O12924   3.178   5.865   4.122
 4301WAT     H112925   3.108   5.893   4.180
 4301WAT     H212926   3.214   5.946   4.086
 4302WAT      O12927   2.170   5.690   4.358
 4302WAT     H112928   2.204   5.775   4.329
 4302WAT     H212929   2.076   5.705   4.370
 4303WAT      O12930   1.777   6.599   3.445
 4303WAT     H112931   1.740   6.648   3.372
 4303WAT     H212932   1.803   6.666   3.508
 4304WAT      O12933   3.485   5.809   4.161
 4304WAT     H112934   3.390   5.813   4.174
 4304WAT     H212935   3.518   5.891   4.200
 4305WAT      O12936   2.538   5.439   3.991
 4305WAT     H112937   2.569   5.384   3.919
 4305WAT     H212938   2.445   5.453   3.972
 4306WAT      O12939   3.223   6.683   3.729
 4306WAT     H112940   3.212   6.589   3.741
 4306WAT     H212941   3.223   6.719   3.817
 4307WAT      O12942   3.033   6.501   4.352
 4307WAT     H112943   3.075   6.480   4.269
 4307WAT     H212944   3.106   6.527   4.410
 4308WAT      O12945   2.777   6.246   3.664
 4308WAT     H112946   2.684   6.239   3.687
 4308WAT     H212947   2.792   6.339   3.653
 4309WAT      O12948   2.776   5.873   3.364
 4309WAT     H112949   2.682   5.889   3.372
 4309WAT     H212950   2.808   5.945   3.309
 4310WAT      O12951   3.428   6.341   4.362
 4310WAT     H112952   3.345   6.348   4.314
 4310WAT     H212953   3.487   6.399   4.315
 4311WAT      O12954   3.180   6.402   3.715
 4311WAT     H112955   3.118   6.368   3.650
 4311WAT     H212956   3.178   6.337   3.785
 4312WAT      O12957   3.124   6.020   4.456
 4312WAT     H112958   3.083   6.102   4.482
 4312WAT     H212959   3.051   5.961   4.437
 4313WAT      O12960   2.338   6.298   3.942
 4313WAT     H112961   2.297   6.227   3.893
 4313WAT     H212962   2.346   6.264   4.031
 4314WAT      O12963   2.385   6.667   4.159
 4314WAT     H112964   2.355   6.606   4.091
 4314WAT     H212965   2.480   6.671   4.148
 4315WAT      O12966   2.209   5.976   4.320
 4315WAT     H112967   2.264   5.987   4.243
 4315WAT     H212968   2.260   6.013   4.392
 4316WAT      O12969   2.294   6.641   4.824
 4316WAT     H112970   2.204   6.663   4.849
 4316WAT     H212971   2.296   6.653   4.729
 4317WAT      O12972   2.998   6.326   3.415
 4317WAT     H112973   3.042   6.242   3.401
 4317WAT     H212974   3.069   6.389   3.424
 4318WAT      O12975   2.176   6.328   4.681
 4318WAT     H112976   2.163   6.415   4.718
 4318WAT     H212977   2.088   6.294   4.667
 4319WAT      O12978   3.356   5.451   3.247
 4319WAT     H112979   3.325   5.460   3.337
 4319WAT     H212980   3.432   5.509   3.242
 4320WAT      O12981   2.008   6.188   3.692
 4320WAT     H112982   1.996   6.260   3.631
 4320WAT     H212983   1.977   6.111   3.645
 4321WAT      O12984   1.772   6.505   4.273
 4321WAT     H112985   1.779   6.518   4.179
 4321WAT     H212986   1.833   6.434   4.292
 4322WAT      O12987   1.896   6.675   3.914
 4322WAT     H112988   1.855   6.689   3.829
 4322WAT     H212989   1.985   6.646   3.894
 4323WAT      O12990   3.492   6.719   4.748
 4323WAT     H112991   3.504   6.696   4.656
 4323WAT     H212992   3.496   6.636   4.795
 4324WAT      O12993   3.477   5.925   4.844
 4324WAT     H112994   3.415   5.976   4.792
 4324WAT     H212995   3.445   5.835   4.839
 4325WAT      O12996   1.777   6.609   4.527
 4325WAT     H112997   1.794   6.562   4.445
 4325WAT     H212998   1.824   6.558   4.594
 4326WAT      O12999   2.254   5.522   4.031
 4326WAT     H113000   2.210   5.600   3.998
 4326WAT     H213001   2.310   5.554   4.101
 4327WAT      O13002   2.683   5.809   4.591
 4327WAT     H113003   2.637   5.830   4.672
 4327WAT     H213004   2.643   5.727   4.561
 4328WAT      O13005   3.183   5.931   4.704
 4328WAT     H113006   3.098   5.901   4.736
 4328WAT     H213007   3.167   5.955   4.613
 4329WAT      O13008   2.893   6.081   4.914
 4329WAT     H113009   2.925   5.997   4.880
 4329WAT     H213010   2.971   6.133   4.929
 4330WAT      O13011   2.566   5.484   3.519
 4330WAT     H113012   2.504   5.484   3.591
 4330WAT     H213013   2.557   5.397   3.479
 4331WAT      O13014   2.458   5.577   4.217
 4331WAT     H113015   2.488   5.667   4.209
 4331WAT     H213016   2.513   5.528   4.155
 4332WAT      O13017   2.234   6.034   3.804
 4332WAT     H113018   2.211   6.013   3.894
 4332WAT     H213019   2.155   6.078   3.769
 4333WAT      O13020   2.957   6.035   3.663
 4333WAT     H113021   2.897   6.107   3.645
 4333WAT     H213022   3.011   6.029   3.585
 4334WAT      O13023   2.478   6.124   4.870
 4334WAT     H113024   2.468   6.030   4.855
 4334WAT     H213025   2.562   6.146   4.831
 4335WAT      O13026   2.817   5.899   3.866
 4335WAT     H113027   2.856   5.930   3.785
 4335WAT     H213028   2.853   5.811   3.878
 4336WAT      O13029   1.991   5.765   4.685
 4336WAT     H113030   1.951   5.850   4.706
 4336WAT     H213031   1.922   5.702   4.705
 4337WAT      O13032   2.648   5.774   4.992
 4337WAT     H113033   2.579   5.754   5.056
 4337WAT     H213034   2.722   5.802   5.046
 4338WAT      O13035   1.721   5.558   4.089
 4338WAT     H113036   1.692   5.615   4.160
 4338WAT     H213037   1.795   5.510   4.125
 4339WAT      O13038   1.740   5.952   3.210
 4339WAT     H113039   1.731   6.046   3.224
 4339WAT     H213040   1.704   5.938   3.122
 4340WAT      O13041   2.876   6.158   4.276
 4340WAT     H113042   2.803   6.209   4.311
 4340WAT     H213043   2.836   6.076   4.246
 4341WAT      O13044   2.519   5.825   4.116
 4341WAT     H113045   2.520   5.781   4.032
 4341WAT     H213046   2.609   5.857   4.127
 4342WAT      O13047   2.105   5.814   4.012
 4342WAT     H113048   2.071   5.861   4.088
 4342WAT     H213049   2.028   5.768   3.976
 4343WAT      O13050   2.526   5.925   3.416
 4343WAT     H113051   2.538   5.921   3.510
 4343WAT     H213052   2.487   6.012   3.400
 4344WAT      O13053   2.922   5.703   4.217
 4344WAT     H113054   2.924   5.748   4.302
 4344WAT     H213055   2.897   5.613   4.239
 4345WAT      O13056   2.427   6.156   3.355
 4345WAT     H113057   2.370   6.112   3.293
 4345WAT     H213058   2.498   6.192   3.302
 4346WAT      O13059   3.265   5.444   4.801
 4346WAT     H113060   3.297   5.371   4.854
 4346WAT     H213061   3.268   5.412   4.711
 4347WAT      O13062   1.935   6.546   4.743
 4347WAT     H113063   1.896   6.482   4.803
 4347WAT     H213064   1.966   6.617   4.800
 4348WAT      O13065   2.550   6.231   4.291
 4348WAT     H113066   2.586   6.184   4.366
 4348WAT     H213067   2.531   6.319   4.325
 4349WAT      O13068   1.836   5.706   3.904
 4349WAT     H113069   1.807   5.669   3.988
 4349WAT     H213070   1.830   5.633   3.843
 4350WAT      O13071   2.329   6.135   4.523
 4350WAT     H113072   2.298   6.223   4.545
 4350WAT     H213073   2.424   6.141   4.527
 4351WAT      O13074   2.181   6.556   3.583
 4351WAT     H113075   2.104   6.502   3.567
 4351WAT     H213076   2.254   6.504   3.549
 4352WAT      O13077   3.257   6.456   4.162
 4352WAT     H113078   3.329   6.505   4.123
 4352WAT     H213079   3.237   6.388   4.097
 4353WAT      O13080   2.803   5.595   3.576
 4353WAT     H113081   2.722   5.545   3.569
 4353WAT     H213082   2.784   5.679   3.535
 4354WAT      O13083   2.795   6.463   4.751
 4354WAT     H113084   2.789   6.371   4.725
 4354WAT     H213085   2.732   6.472   4.822
 4355WAT      O13086   3.075   6.032   3.406
 4355WAT     H113087   3.164   6.063   3.388
 4355WAT     H213088   3.072   5.945   3.367
 4356WAT      O13089   2.186   6.523   3.946
 4356WAT     H113090   2.238   6.442   3.941
 4356WAT     H213091   2.141   6.517   4.031
 4357WAT      O13092   2.674   6.649   3.474
 4357WAT     H113093   2.709   6.724   3.424
 4357WAT     H213094   2.592   6.681   3.510
 4358WAT      O13095   1.934   6.219   4.638
 4358WAT     H113096   1.898   6.286   4.696
 4358WAT     H213097   1.905   6.136   4.675
 4359WAT      O13098   2.254   6.265   4.926
 4359WAT     H113099   2.224   6.280   4.836
 4359WAT     H213100   2.331   6.209   4.917
 4360WAT      O13101   3.302   6.163   3.353
 4360WAT     H113102   3.294   6.206   3.268
 4360WAT     H213103   3.374   6.209   3.396
 4361WAT      O13104   3.410   6.409   4.660
 4361WAT     H113105   3.337   6.468   4.641
 4361WAT     H213106   3.462   6.408   4.580
 4362WAT      O13107   2.963   6.582   4.010
 4362WAT     H113108   2.998   6.522   3.944
 4362WAT     H213109   2.874   6.549   4.027
 4363WAT      O13110   2.571   6.658   3.751
 4363WAT     H113111   2.640   6.712   3.789
 4363WAT     H213112   2.493   6.712   3.754
 4364WAT      O13113   1.785   6.219   3.300
 4364WAT     H113114   1.872   6.248   3.328
 4364WAT     H213115   1.736   6.301   3.289
 4365WAT      O13116   2.502   6.358   3.712
 4365WAT     H113117   2.547   6.439   3.735
 4365WAT     H213118   2.467   6.326   3.795
 4366WAT      O13119   2.092   5.392   3.759
 4366WAT     H113120   2.079   5.392   3.854
 4366WAT     H213121   2.009   5.426   3.724
 4367WAT      O13122   3.244   6.738   3.279
 4367WAT     H113123   3.221   6.666   3.338
 4367WAT     H213124   3.205   6.713   3.195
 4368WAT      O13125   1.792   5.568   4.705
 4368WAT     H113126   1.720   5.588   4.766
 4368WAT     H213127   1.834   5.491   4.743
 4369WAT      O13128   3.202   6.530   3.445
 4369WAT     H113129   3.173   6.576   3.524
 4369WAT     H213130   3.282   6.484   3.472
 4370WAT      O13131   1.984   6.401   3.513
 4370WAT     H113132   1.923   6.475   3.514
 4370WAT     H213133   2.031   6.410   3.430
 4371WAT      O13134   2.941   5.818   4.480
 4371WAT     H113135   2.978   5.735   4.513
 4371WAT     H213136   2.855   5.824   4.522
 4372WAT      O13137   3.278   5.713   3.561
 4372WAT     H113138   3.215   5.724   3.490
 4372WAT     H213139   3.228   5.735   3.640
 4373WAT      O13140   2.475   5.941   3.703
 4373WAT     H113141   2.404   5.988   3.747
 4373WAT     H213142   2.503   5.875   3.766
 4374WAT      O13143   2.637   6.083   4.503
 4374WAT     H113144   2.687   6.130   4.569
 4374WAT     H213145   2.651   5.991   4.524
 4375WAT      O13146   2.878   5.613   3.847
 4375WAT     H113147   2.865   5.615   3.752
 4375WAT     H213148   2.973   5.618   3.859
 4376WAT      O13149   2.295   5.772   3.440
 4376WAT     H113150   2.380   5.816   3.434
 4376WAT     H213151   2.258   5.803   3.523
 4377WAT      O13152   3.358   5.705   4.587
 4377WAT     H113153   3.307   5.779   4.621
 4377WAT     H213154   3.439   5.743   4.555
 4378WAT      O13155   3.187   6.229   3.932
 4378WAT     H113156   3.093   6.230   3.949
 4378WAT     H213157   3.218   6.150   3.976
 4379WAT      O13158   2.185   6.397   3.288
 4379WAT     H113159   2.261   6.386   3.344
 4379WAT     H213160   2.193   6.328   3.223
 4380WAT      O13161   2.054   6.140   3.356
 4380WAT     H113162   2.062   6.046   3.367
 4380WAT     H213163   2.143   6.173   3.367
 4381WAT      O13164   2.919   6.685   4.980
 4381WAT     H113165   2.858   6.687   4.906
 4381WAT     H213166   2.888   6.611   5.034
 4382WAT      O13167   1.807   6.323   4.880
 4382WAT     H113168   1.857   6.265   4.937
 4382WAT     H213169   1.733   6.351   4.933
 4383WAT      O13170   2.497   6.595   3.235
 4383WAT     H113171   2.487   6.533   3.308
 4383WAT     H213172   2.480   6.542   3.157
 4384WAT      O13173   2.512   6.463   4.833
 4384WAT     H113174   2.436   6.520   4.825
 4384WAT     H213175   2.531   6.434   4.744
 4385WAT      O13176   2.821   6.501   3.296
 4385WAT     H113177   2.766   6.546   3.360
 4385WAT     H213178   2.883   6.450   3.348
 4386WAT      O13179   3.227   6.636   4.889
 4386WAT     H113180   3.301   6.670   4.838
 4386WAT     H213181   3.150   6.653   4.833
 4387WAT      O13182   2.010   6.137   4.969
 4387WAT     H113183   2.014   6.107   5.060
 4387WAT     H213184   2.096   6.177   4.953
 4388WAT      O13185   2.388   6.397   3.485
 4388WAT     H113186   2.430   6.380   3.569
 4388WAT     H213187   2.400   6.316   3.436
 4389WAT      O13188   2.204   5.995   4.766
 4389WAT     H113189   2.151   5.946   4.703
 4389WAT     H213190   2.271   6.038   4.712
 4390WAT      O13191   2.639   6.299   3.210
 4390WAT     H113192   2.691   6.228   3.173
 4390WAT     H213193   2.704   6.363   3.240
 4391WAT      O13194   3.094   6.441   4.742
 4391WAT     H113195   3.135   6.457   4.827
 4391WAT     H213196   3.001   6.454   4.759
 4392WAT      O13197   3.141   6.175   4.943
 4392WAT     H113198   3.199   6.100   4.934
 4392WAT     H213199   3.159   6.228   4.865
 4393WAT      O13200   2.253   5.691   4.774
 4393WAT     H113201   2.244   5.630   4.701
 4393WAT     H213202   2.195   5.764   4.751
 4394WAT      O13203   2.530   5.547   4.477
 4394WAT     H113204   2.485   5.549   4.393
 4394WAT     H213205   2.466   5.507   4.537
 4395WAT      O13206   2.570   6.437   4.539
 4395WAT     H113207   2.612   6.521   4.522
 4395WAT     H213208   2.478   6.450   4.516
 4396WAT      O13209   2.804   6.210   4.678
 4396WAT     H113210   2.816   6.150   4.752
 4396WAT     H213211   2.890   6.214   4.636
 4397WAT      O13212   3.038   6.265   4.535
 4397WAT     H113213   2.985   6.318   4.475
 4397WAT     H213214   3.072   6.328   4.598
 4398WAT      O13215   2.278   6.004   3.180
 4398WAT     H113216   2.257   5.918   3.216
 4398WAT     H213217   2.260   5.995   3.086
 4399WAT      O13218   2.481   5.864   4.803
 4399WAT     H113219   2.540   5.833   4.872
 4399WAT     H213220   2.399   5.817   4.819
 4400WAT      O13221   2.962   5.826   4.827
 4400WAT     H113222   2.894   5.760   4.820
 4400WAT     H213223   3.035   5.781   4.871
 4401WAT      O13224   3.025   5.485   3.433
 4401WAT     H113225   3.053   5.401   3.468
 4401WAT     H213226   2.948   5.508   3.484
 4402WAT      O13227   2.157   5.714   3.179
 4402WAT     H113228   2.188   5.715   3.088
 4402WAT     H213229   2.231   5.679   3.228
 4403WAT      O13230   2.479   5.608   3.277
 4403WAT     H113231   2.444   5.541   3.219
 4403WAT     H213232   2.499   5.562   3.359
 4404WAT      O13233   2.060   6.645   3.262
 4404WAT     H113234   2.103   6.699   3.327
 4404WAT     H213235   2.108   6.562   3.263
 4405WAT      O13236   3.463   6.409   3.494
 4405WAT     H113237   3.539   6.466   3.504
 4405WAT     H213238   3.465   6.352   3.571
 4406WAT      O13239   1.813   6.261   3.917
 4406WAT     H113240   1.748   6.234   3.852
 4406WAT     H213241   1.897   6.250   3.872
 4407WAT      O13242   3.564   6.494   3.978
 4407WAT     H113243   3.601   6.416   3.937
 4407WAT     H213244   3.628   6.563   3.960
 4408WAT      O13245   3.262   6.633   4.519
 4408WAT     H113246   3.181   6.676   4.546
 4408WAT     H213247   3.303   6.694   4.458
 4409WAT      O13248   3.468   6.438   3.209
 4409WAT     H113249   3.496   6.529   3.197
 4409WAT     H213250   3.450   6.432   3.303
 4410WAT      O13251   3.108   5.741   3.339
 4410WAT     H113252   3.150   5.722   3.255
 4410WAT     H213253   3.078   5.656   3.370
 4411WAT      O13254   3.458   6.232   3.709
 4411WAT     H113255   3.421   6.155   3.665
 4411WAT     H213256   3.385   6.270   3.757
 4412WAT      O13257   1.917   6.300   4.371
 4412WAT     H113258   1.954   6.291   4.459
 4412WAT     H213259   1.860   6.224   4.361
 4413WAT      O13260   3.397   6.147   4.672
 4413WAT     H113261   3.374   6.124   4.582
 4413WAT     H213262   3.423   6.239   4.668
 4414WAT      O13263   1.872   5.991   4.761
 4414WAT     H113264   1.783   5.988   4.795
 4414WAT     H213265   1.926   6.011   4.838
 4415WAT      O13266   3.241   5.669   4.950
 4415WAT     H113267   3.329   5.670   4.988
 4415WAT     H213268   3.242   5.596   4.889
 4416WAT      O13269   1.735   5.982   3.511
 4416WAT     H113270   1.644   6.009   3.494
 4416WAT     H213271   1.783   6.009   3.433
 4417WAT      O13272   3.386   6.055   4.039
 4417WAT     H113273   3.438   6.005   3.976
 4417WAT     H213274   3.444   6.068   4.113
 4418WAT      O13275   3.404   6.063   4.391
 4418WAT     H113276   3.309   6.060   4.402
 4418WAT     H213277   3.422   6.154   4.367
 4419WAT      O13278   1.989   5.888   3.302
 4419WAT     H113279   2.060   5.846   3.253
 4419WAT     H213280   1.917   5.895   3.239
 4420WAT      O13281   1.954   5.493   3.206
 4420WAT     H113282   2.026   5.547   3.238
 4420WAT     H213283   1.981   5.466   3.118
 4421WAT      O13284   3.335   5.980   3.633
 4421WAT     H113285   3.384   5.957   3.711
 4421WAT     H213286   3.315   5.896   3.591
 4422WAT      O13287   1.923   5.418   4.196
 4422WAT     H113288   1.987   5.363   4.152
 4422WAT     H213289   1.965   5.444   4.278
 4423WAT      O13290   3.477   5.844   3.886
 4423WAT     H113291   3.466   5.828   3.980
 4423WAT     H213292   3.554   5.791   3.862
 4424WAT      O13293   3.312   5.438   4.532
 4424WAT     H113294   3.376   5.499   4.568
 4424WAT     H213295   3.327   5.441   4.437
 4425WAT      O13296   3.566   5.627   3.210
 4425WAT     H113297   3.659   5.614   3.189
 4425WAT     H213298   3.564   5.635   3.305
 4426WAT      O13299   3.574   5.704   3.473
 4426WAT     H113300   3.494   5.698   3.526
 4426WAT     H213301   3.594   5.798   3.472
 4427WAT      O13302   1.898   5.434   4.470
 4427WAT     H113303   1.863   5.480   4.547
 4427WAT     H213304   1.865   5.345   4.479
 4428WAT      O13305   2.649   5.553   4.823
 4428WAT     H113306   2.643   5.612   4.898
 4428WAT     H213307   2.743   5.542   4.808
 4429WAT      O13308   2.913   5.519   4.787
 4429WAT     H113309   2.974   5.551   4.720
 4429WAT     H213310   2.967   5.470   4.849
 4430WAT      O13311   1.965   5.387   4.798
 4430WAT     H113312   2.020   5.369   4.722
 4430WAT     H213313   1.972   5.308   4.852
 4431WAT      O13314   2.987   5.375   4.419
 4431WAT     H113315   2.900   5.408   4.399
 4431WAT     H213316   2.976   5.328   4.502
 4432WAT      O13317   3.078   5.596   4.558
 4432WAT     H113318   3.045   5.514   4.520
 4432WAT     H213319   3.173   5.592   4.545
 4433WAT      O13320   2.762   5.467   4.313
 4433WAT     H113321   2.683   5.514   4.341
 4433WAT     H213322   2.732   5.376   4.302
 4434WAT      O13323   3.217   5.537   4.118
 4434WAT     H113324   3.261   5.532   4.033
 4434WAT     H213325   3.190   5.629   4.125
 4435WAT      O13326   3.403   5.500   3.919
 4435WAT     H113327   3.397   5.406   3.904
 4435WAT     H213328   3.481   5.511   3.973
 4436WAT      O13329   1.896   5.497   3.565
 4436WAT     H113330   1.972   5.509   3.508
 4436WAT     H213331   1.850   5.581   3.561
 4437WAT      O13332   2.550   5.709   3.864
 4437WAT     H113333   2.469   5.671   3.830
 4437WAT     H213334   2.601   5.633   3.895
 4438WAT      O13335   3.001   5.375   3.988
 4438WAT     H113336   3.061   5.432   4.036
 4438WAT     H213337   2.926   5.432   3.966
 4439WAT      O13338   3.315   5.415   3.516
 4439WAT     H113339   3.334   5.505   3.542
 4439WAT     H213340   3.236   5.392   3.565
 4440WAT      O13341   2.133   5.550   3.419
 4440WAT     H113342   2.186   5.471   3.406
 4440WAT     H213343   2.197   5.618   3.443
 4441WAT      O13344   2.353   5.524   3.725
 4441WAT     H113345   2.290   5.454   3.741
 4441WAT     H213346   2.299   5.600   3.703
 4442WAT      O13347   2.365   5.452   4.968
 4442WAT     H113348   2.337   5.502   4.892
 4442WAT     H213349   2.404   5.372   4.932
 4443WAT      O13350   3.026   5.393   5.026
 4443WAT     H113351   3.014   5.425   5.116
 4443WAT     H213352   3.107   5.433   4.996
 4444WAT      O13353   2.916   6.195   2.062
 4444WAT     H113354   2.908   6.104   2.035
 4444WAT     H213355   2.875   6.245   1.992
 4445WAT      O13356   2.729   6.373   2.251
 4445WAT     H113357   2.652   6.325   2.280
 4445WAT     H213358   2.794   6.305   2.233
 4446WAT      O13359   2.131   6.404   2.338
 4446WAT     H113360   2.048   6.378   2.378
 4446WAT     H213361   2.192   6.411   2.412
 4447WAT      O13362   1.972   5.900   1.717
 4447WAT     H113363   1.883   5.934   1.707
 4447WAT     H213364   2.000   5.880   1.628
 4448WAT      O13365   1.768   6.160   2.305
 4448WAT     H113366   1.825   6.083   2.305
 4448WAT     H213367   1.768   6.190   2.214
 4449WAT      O13368   2.673   6.640   2.251
 4449WAT     H113369   2.666   6.546   2.235
 4449WAT     H213370   2.750   6.649   2.308
 4450WAT      O13371   1.892   5.701   2.484
 4450WAT     H113372   1.874   5.611   2.512
 4450WAT     H213373   1.852   5.756   2.551
 4451WAT      O13374   2.776   5.921   2.274
 4451WAT     H113375   2.814   5.834   2.263
 4451WAT     H213376   2.767   5.955   2.185
 4452WAT      O13377   2.189   5.758   1.820
 4452WAT     H113378   2.200   5.848   1.851
 4452WAT     H213379   2.098   5.754   1.791
 4453WAT      O13380   3.155   5.671   1.967
 4453WAT     H113381   3.237   5.622   1.971
 4453WAT     H213382   3.158   5.730   2.043
 4454WAT      O13383   1.954   5.951   2.345
 4454WAT     H113384   2.022   5.977   2.407
 4454WAT     H213385   1.923   5.867   2.378
 4455WAT      O13386   2.374   6.055   2.253
 4455WAT     H113387   2.424   6.105   2.317
 4455WAT     H213388   2.427   5.978   2.236
 4456WAT      O13389   3.584   5.872   2.624
 4456WAT     H113390   3.513   5.911   2.572
 4456WAT     H213391   3.610   5.942   2.684
 4457WAT      O13392   2.202   5.519   2.680
 4457WAT     H113393   2.202   5.571   2.599
 4457WAT     H213394   2.119   5.471   2.678
 4458WAT      O13395   2.841   6.530   1.830
 4458WAT     H113396   2.779   6.577   1.774
 4458WAT     H213397   2.892   6.600   1.872
 4459WAT      O13398   2.327   6.483   2.498
 4459WAT     H113399   2.294   6.546   2.562
 4459WAT     H213400   2.345   6.536   2.420
 4460WAT      O13401   3.178   5.865   2.245
 4460WAT     H113402   3.108   5.893   2.303
 4460WAT     H213403   3.214   5.946   2.208
 4461WAT      O13404   2.170   5.690   2.481
 4461WAT     H113405   2.204   5.775   2.451
 4461WAT     H213406   2.076   5.705   2.492
 4462WAT      O13407   1.777   6.599   1.567
 4462WAT     H113408   1.740   6.648   1.494
 4462WAT     H213409   1.803   6.666   1.630
 4463WAT      O13410   3.485   5.809   2.284
 4463WAT     H113411   3.390   5.813   2.297
 4463WAT     H213412   3.518   5.891   2.322
 4464WAT      O13413   2.538   5.439   2.113
 4464WAT     H113414   2.569   5.384   2.042
 4464WAT     H213415   2.445   5.453   2.095
 4465WAT      O13416   3.223   6.683   1.851
 4465WAT     H113417   3.212   6.589   1.864
 4465WAT     H213418   3.223   6.719   1.940
 4466WAT      O13419   3.033   6.501   2.475
 4466WAT     H113420   3.075   6.480   2.392
 4466WAT     H213421   3.106   6.527   2.532
 4467WAT      O13422   2.777   6.246   1.787
 4467WAT     H113423   2.684   6.239   1.810
 4467WAT     H213424   2.792   6.339   1.775
 4468WAT      O13425   2.776   5.873   1.486
 4468WAT     H113426   2.682   5.889   1.495
 4468WAT     H213427   2.808   5.945   1.432
 4469WAT      O13428   3.428   6.341   2.484
 4469WAT     H113429   3.345   6.348   2.437
 4469WAT     H213430   3.487   6.399   2.437
 4470WAT      O13431   3.180   6.402   1.837
 4470WAT     H113432   3.118   6.368   1.772
 4470WAT     H213433   3.178   6.337   1.908
 4471WAT      O13434   3.124   6.020   2.579
 4471WAT     H113435   3.083   6.102   2.604
 4471WAT     H213436   3.051   5.961   2.560
 4472WAT      O13437   2.338   6.298   2.065
 4472WAT     H113438   2.297   6.227   2.015
 4472WAT     H213439   2.346   6.264   2.154
 4473WAT      O13440   2.385   6.667   2.281
 4473WAT     H113441   2.355   6.606   2.213
 4473WAT     H213442   2.480   6.671   2.270
 4474WAT      O13443   2.209   5.976   2.443
 4474WAT     H113444   2.264   5.987   2.365
 4474WAT     H213445   2.260   6.013   2.514
 4475WAT      O13446   2.294   6.641   2.946
 4475WAT     H113447   2.204   6.663   2.971
 4475WAT     H213448   2.296   6.653   2.852
 4476WAT      O13449   2.998   6.326   1.538
 4476WAT     H113450   3.042   6.242   1.523
 4476WAT     H213451   3.069   6.389   1.546
 4477WAT      O13452   2.176   6.328   2.804
 4477WAT     H113453   2.163   6.415   2.841
 4477WAT     H213454   2.088   6.294   2.789
 4478WAT      O13455   3.356   5.451   1.369
 4478WAT     H113456   3.325   5.460   1.459
 4478WAT     H213457   3.432   5.509   1.364
 4479WAT      O13458   2.008   6.188   1.815
 4479WAT     H113459   1.996   6.260   1.754
 4479WAT     H213460   1.977   6.111   1.767
 4480WAT      O13461   1.772   6.505   2.396
 4480WAT     H113462   1.779   6.518   2.301
 4480WAT     H213463   1.833   6.434   2.415
 4481WAT      O13464   1.896   6.675   2.037
 4481WAT     H113465   1.855   6.689   1.951
 4481WAT     H213466   1.985   6.646   2.016
 4482WAT      O13467   3.492   6.719   2.870
 4482WAT     H113468   3.504   6.696   2.779
 4482WAT     H213469   3.496   6.636   2.918
 4483WAT      O13470   3.477   5.925   2.967
 4483WAT     H113471   3.415   5.976   2.914
 4483WAT     H213472   3.445   5.835   2.961
 4484WAT      O13473   1.777   6.609   2.650
 4484WAT     H113474   1.794   6.562   2.568
 4484WAT     H213475   1.824   6.558   2.716
 4485WAT      O13476   2.254   5.522   2.153
 4485WAT     H113477   2.210   5.600   2.120
 4485WAT     H213478   2.310   5.554   2.224
 4486WAT      O13479   2.683   5.809   2.714
 4486WAT     H113480   2.637   5.830   2.795
 4486WAT     H213481   2.643   5.727   2.683
 4487WAT      O13482   3.183   5.931   2.827
 4487WAT     H113483   3.098   5.901   2.859
 4487WAT     H213484   3.167   5.955   2.735
 4488WAT      O13485   2.893   6.081   3.037
 4488WAT     H113486   2.925   5.997   3.003
 4488WAT     H213487   2.971   6.133   3.051
 4489WAT      O13488   2.566   5.484   1.641
 4489WAT     H113489   2.504   5.484   1.714
 4489WAT     H213490   2.557   5.397   1.602
 4490WAT      O13491   2.458   5.577   2.339
 4490WAT     H113492   2.488   5.667   2.331
 4490WAT     H213493   2.513   5.528   2.278
 4491WAT      O13494   2.234   6.034   1.926
 4491WAT     H113495   2.211   6.013   2.017
 4491WAT     H213496   2.155   6.078   1.892
 4492WAT      O13497   2.957   6.035   1.786
 4492WAT     H113498   2.897   6.107   1.768
 4492WAT     H213499   3.011   6.029   1.708
 4493WAT      O13500   2.478   6.124   2.993
 4493WAT     H113501   2.468   6.030   2.978
 4493WAT     H213502   2.562   6.146   2.953
 4494WAT      O13503   2.817   5.899   1.989
 4494WAT     H113504   2.856   5.930   1.908
 4494WAT     H213505   2.853   5.811   2.000
 4495WAT      O13506   1.991   5.765   2.808
 4495WAT     H113507   1.951   5.850   2.829
 4495WAT     H213508   1.922   5.702   2.827
 4496WAT      O13509   2.648   5.774   3.115
 4496WAT     H113510   2.579   5.754   3.178
 4496WAT     H213511   2.722   5.802   3.168
 4497WAT      O13512   1.721   5.558   2.211
 4497WAT     H113513   1.692   5.615   2.283
 4497WAT     H213514   1.795   5.510   2.248
 4498WAT      O13515   1.740   5.952   1.332
 4498WAT     H113516   1.731   6.046   1.346
 4498WAT     H213517   1.704   5.938   1.244
 4499WAT      O13518   2.876   6.158   2.399
 4499WAT     H113519   2.803   6.209   2.433
 4499WAT     H213520   2.836   6.076   2.368
 4500WAT      O13521   2.519   5.825   2.239
 4500WAT     H113522   2.520   5.781   2.154
 4500WAT     H213523   2.609   5.857   2.250
 4501WAT      O13524   2.105   5.814   2.135
 4501WAT     H113525   2.071   5.861   2.211
 4501WAT     H213526   2.028   5.768   2.099
 4502WAT      O13527   2.526   5.925   1.538
 4502WAT     H113528   2.538   5.921   1.633
 4502WAT     H213529   2.487   6.012   1.523
 4503WAT      O13530   2.922   5.703   2.340
 4503WAT     H113531   2.924   5.748   2.424
 4503WAT     H213532   2.897   5.613   2.361
 4504WAT      O13533   2.427   6.156   1.478
 4504WAT     H113534   2.370   6.112   1.415
 4504WAT     H213535   2.498   6.192   1.425
 4505WAT      O13536   3.265   5.444   2.924
 4505WAT     H113537   3.297   5.371   2.976
 4505WAT     H213538   3.268   5.412   2.833
 4506WAT      O13539   1.935   6.546   2.866
 4506WAT     H113540   1.896   6.482   2.925
 4506WAT     H213541   1.966   6.617   2.923
 4507WAT      O13542   2.550   6.231   2.414
 4507WAT     H113543   2.586   6.184   2.488
 4507WAT     H213544   2.531   6.319   2.448
 4508WAT      O13545   1.836   5.706   2.027
 4508WAT     H113546   1.807   5.669   2.110
 4508WAT     H213547   1.830   5.633   1.965
 4509WAT      O13548   2.329   6.135   2.646
 4509WAT     H113549   2.298   6.223   2.668
 4509WAT     H213550   2.424   6.141   2.649
 4510WAT      O13551   2.181   6.556   1.705
 4510WAT     H113552   2.104   6.502   1.689
 4510WAT     H213553   2.254   6.504   1.671
 4511WAT      O13554   3.257   6.456   2.284
 4511WAT     H113555   3.329   6.505   2.245
 4511WAT     H213556   3.237   6.388   2.220
 4512WAT      O13557   2.803   5.595   1.699
 4512WAT     H113558   2.722   5.545   1.691
 4512WAT     H213559   2.784   5.679   1.657
 4513WAT      O13560   2.795   6.463   2.873
 4513WAT     H113561   2.789   6.371   2.848
 4513WAT     H213562   2.732   6.472   2.945
 4514WAT      O13563   3.075   6.032   1.528
 4514WAT     H113564   3.164   6.063   1.511
 4514WAT     H213565   3.072   5.945   1.489
 4515WAT      O13566   2.186   6.523   2.069
 4515WAT     H113567   2.238   6.442   2.064
 4515WAT     H213568   2.141   6.517   2.153
 4516WAT      O13569   2.674   6.649   1.596
 4516WAT     H113570   2.709   6.724   1.547
 4516WAT     H213571   2.592   6.681   1.633
 4517WAT      O13572   1.934   6.219   2.760
 4517WAT     H113573   1.898   6.286   2.819
 4517WAT     H213574   1.905   6.136   2.797
 4518WAT      O13575   2.254   6.265   3.049
 4518WAT     H113576   2.224   6.280   2.959
 4518WAT     H213577   2.331   6.209   3.039
 4519WAT      O13578   3.302   6.163   1.475
 4519WAT     H113579   3.294   6.206   1.390
 4519WAT     H213580   3.374   6.209   1.518
 4520WAT      O13581   3.410   6.409   2.783
 4520WAT     H113582   3.337   6.468   2.763
 4520WAT     H213583   3.462   6.408   2.703
 4521WAT      O13584   2.963   6.582   2.133
 4521WAT     H113585   2.998   6.522   2.067
 4521WAT     H213586   2.874   6.549   2.150
 4522WAT      O13587   2.571   6.658   1.873
 4522WAT     H113588   2.640   6.712   1.912
 4522WAT     H213589   2.493   6.712   1.877
 4523WAT      O13590   1.785   6.219   1.423
 4523WAT     H113591   1.872   6.248   1.451
 4523WAT     H213592   1.736   6.301   1.411
 4524WAT      O13593   2.502   6.358   1.835
 4524WAT     H113594   2.547   6.439   1.857
 4524WAT     H213595   2.467   6.326   1.918
 4525WAT      O13596   2.092   5.392   1.882
 4525WAT     H113597   2.079   5.392   1.977
 4525WAT     H213598   2.009   5.426   1.847
 4526WAT      O13599   3.244   6.738   1.402
 4526WAT     H113600   3.221   6.666   1.461
 4526WAT     H213601   3.205   6.713   1.318
 4527WAT      O13602   1.792   5.568   2.828
 4527WAT     H113603   1.720   5.588   2.888
 4527WAT     H213604   1.834   5.491   2.865
 4528WAT      O13605   3.202   6.530   1.568
 4528WAT     H113606   3.173   6.576   1.647
 4528WAT     H213607   3.282   6.484   1.595
 4529WAT      O13608   1.984   6.401   1.635
 4529WAT     H113609   1.923   6.475   1.636
 4529WAT     H213610   2.031   6.410   1.553
 4530WAT      O13611   2.941   5.818   2.603
 4530WAT     H113612   2.978   5.735   2.636
 4530WAT     H213613   2.855   5.824   2.645
 4531WAT      O13614   3.278   5.713   1.684
 4531WAT     H113615   3.215   5.724   1.612
 4531WAT     H213616   3.228   5.735   1.763
 4532WAT      O13617   2.475   5.941   1.825
 4532WAT     H113618   2.404   5.988   1.870
 4532WAT     H213619   2.503   5.875   1.889
 4533WAT      O13620   2.637   6.083   2.625
 4533WAT     H113621   2.687   6.130   2.692
 4533WAT     H213622   2.651   5.991   2.646
 4534WAT      O13623   2.878   5.613   1.969
 4534WAT     H113624   2.865   5.615   1.874
 4534WAT     H213625   2.973   5.618   1.981
 4535WAT      O13626   2.295   5.772   1.563
 4535WAT     H113627   2.380   5.816   1.556
 4535WAT     H213628   2.258   5.803   1.646
 4536WAT      O13629   3.358   5.705   2.710
 4536WAT     H113630   3.307   5.779   2.744
 4536WAT     H213631   3.439   5.743   2.678
 4537WAT      O13632   3.187   6.229   2.054
 4537WAT     H113633   3.093   6.230   2.072
 4537WAT     H213634   3.218   6.150   2.099
 4538WAT      O13635   2.185   6.397   1.410
 4538WAT     H113636   2.261   6.386   1.467
 4538WAT     H213637   2.193   6.328   1.345
 4539WAT      O13638   2.054   6.140   1.479
 4539WAT     H113639   2.062   6.046   1.490
 4539WAT     H213640   2.143   6.173   1.489
 4540WAT      O13641   2.919   6.685   3.103
 4540WAT     H113642   2.858   6.687   3.029
 4540WAT     H213643   2.888   6.611   3.156
 4541WAT      O13644   1.807   6.323   3.002
 4541WAT     H113645   1.857   6.265   3.059
 4541WAT     H213646   1.733   6.351   3.056
 4542WAT      O13647   2.497   6.595   1.358
 4542WAT     H113648   2.487   6.533   1.430
 4542WAT     H213649   2.480   6.542   1.279
 4543WAT      O13650   2.512   6.463   2.956
 4543WAT     H113651   2.436   6.520   2.947
 4543WAT     H213652   2.531   6.434   2.866
 4544WAT      O13653   2.821   6.501   1.418
 4544WAT     H113654   2.766   6.546   1.483
 4544WAT     H213655   2.883   6.450   1.470
 4545WAT      O13656   3.227   6.636   3.011
 4545WAT     H113657   3.301   6.670   2.961
 4545WAT     H213658   3.150   6.653   2.956
 4546WAT      O13659   2.010   6.137   3.092
 4546WAT     H113660   2.014   6.107   3.183
 4546WAT     H213661   2.096   6.177   3.076
 4547WAT      O13662   2.388   6.397   1.608
 4547WAT     H113663   2.430   6.380   1.692
 4547WAT     H213664   2.400   6.316   1.558
 4548WAT      O13665   2.204   5.995   2.888
 4548WAT     H113666   2.151   5.946   2.826
 4548WAT     H213667   2.271   6.038   2.835
 4549WAT      O13668   2.639   6.299   1.333
 4549WAT     H113669   2.691   6.228   1.296
 4549WAT     H213670   2.704   6.363   1.363
 4550WAT      O13671   3.094   6.441   2.865
 4550WAT     H113672   3.135   6.457   2.950
 4550WAT     H213673   3.001   6.454   2.881
 4551WAT      O13674   3.141   6.175   3.065
 4551WAT     H113675   3.199   6.100   3.056
 4551WAT     H213676   3.159   6.228   2.988
 4552WAT      O13677   2.253   5.691   2.896
 4552WAT     H113678   2.244   5.630   2.824
 4552WAT     H213679   2.195   5.764   2.874
 4553WAT      O13680   2.530   5.547   2.600
 4553WAT     H113681   2.485   5.549   2.515
 4553WAT     H213682   2.466   5.507   2.659
 4554WAT      O13683   2.570   6.437   2.662
 4554WAT     H113684   2.612   6.521   2.645
 4554WAT     H213685   2.478   6.450   2.639
 4555WAT      O13686   2.804   6.210   2.800
 4555WAT     H113687   2.816   6.150   2.874
 4555WAT     H213688   2.890   6.214   2.758
 4556WAT      O13689   3.038   6.265   2.658
 4556WAT     H113690   2.985   6.318   2.597
 4556WAT     H213691   3.072   6.328   2.721
 4557WAT      O13692   2.278   6.004   1.302
 4557WAT     H113693   2.257   5.918   1.338
 4557WAT     H213694   2.260   5.995   1.209
 4558WAT      O13695   2.481   5.864   2.926
 4558WAT     H113696   2.540   5.833   2.995
 4558WAT     H213697   2.399   5.817   2.942
 4559WAT      O13698   2.962   5.826   2.949
 4559WAT     H113699   2.894   5.760   2.943
 4559WAT     H213700   3.035   5.781   2.994
 4560WAT      O13701   3.025   5.485   1.555
 4560WAT     H113702   3.053   5.401   1.591
 4560WAT     H213703   2.948   5.508   1.607
 4561WAT      O13704   2.157   5.714   1.301
 4561WAT     H113705   2.188   5.715   1.210
 4561WAT     H213706   2.231   5.679   1.351
 4562WAT      O13707   2.479   5.608   1.400
 4562WAT     H113708   2.444   5.541   1.342
 4562WAT     H213709   2.499   5.562   1.481
 4563WAT      O13710   2.060   6.645   1.384
 4563WAT     H113711   2.103   6.699   1.450
 4563WAT     H213712   2.108   6.562   1.385
 4564WAT      O13713   3.463   6.409   1.616
 4564WAT     H113714   3.539   6.466   1.627
 4564WAT     H213715   3.465   6.352   1.693
 4565WAT      O13716   1.813   6.261   2.039
 4565WAT     H113717   1.748   6.234   1.975
 4565WAT     H213718   1.897   6.250   1.994
 4566WAT      O13719   3.564   6.494   2.101
 4566WAT     H113720   3.601   6.416   2.060
 4566WAT     H213721   3.628   6.563   2.083
 4567WAT      O13722   3.262   6.633   2.642
 4567WAT     H113723   3.181   6.676   2.668
 4567WAT     H213724   3.303   6.694   2.581
 4568WAT      O13725   3.468   6.438   1.332
 4568WAT     H113726   3.496   6.529   1.319
 4568WAT     H213727   3.450   6.432   1.426
 4569WAT      O13728   3.108   5.741   1.461
 4569WAT     H113729   3.150   5.722   1.377
 4569WAT     H213730   3.078   5.656   1.493
 4570WAT      O13731   3.458   6.232   1.831
 4570WAT     H113732   3.421   6.155   1.788
 4570WAT     H213733   3.385   6.270   1.880
 4571WAT      O13734   1.917   6.300   2.493
 4571WAT     H113735   1.954   6.291   2.581
 4571WAT     H213736   1.860   6.224   2.483
 4572WAT      O13737   3.397   6.147   2.795
 4572WAT     H113738   3.374   6.124   2.705
 4572WAT     H213739   3.423   6.239   2.790
 4573WAT      O13740   1.872   5.991   2.884
 4573WAT     H113741   1.783   5.988   2.918
 4573WAT     H213742   1.926   6.011   2.960
 4574WAT      O13743   3.241   5.669   3.072
 4574WAT     H113744   3.329   5.670   3.111
 4574WAT     H213745   3.242   5.596   3.011
 4575WAT      O13746   1.735   5.982   1.634
 4575WAT     H113747   1.644   6.009   1.616
 4575WAT     H213748   1.783   6.009   1.556
 4576WAT      O13749   3.386   6.055   2.161
 4576WAT     H113750   3.438   6.005   2.098
 4576WAT     H213751   3.444   6.068   2.236
 4577WAT      O13752   3.404   6.063   2.514
 4577WAT     H113753   3.309   6.060   2.525
 4577WAT     H213754   3.422   6.154   2.490
 4578WAT      O13755   1.989   5.888   1.424
 4578WAT     H113756   2.060   5.846   1.376
 4578WAT     H213757   1.917   5.895   1.361
 4579WAT      O13758   1.954   5.493   1.329
 4579WAT     H113759   2.026   5.547   1.360
 4579WAT     H213760   1.981   5.466   1.241
 4580WAT      O13761   3.335   5.980   1.755
 4580WAT     H113762   3.384   5.957   1.834
 4580WAT     H213763   3.315   5.896   1.714
 4581WAT      O13764   1.923   5.418   2.319
 4581WAT     H113765   1.987   5.363   2.275
 4581WAT     H213766   1.965   5.444   2.401
 4582WAT      O13767   3.477   5.844   2.009
 4582WAT     H113768   3.466   5.828   2.102
 4582WAT     H213769   3.554   5.791   1.984
 4583WAT      O13770   3.312   5.438   2.654
 4583WAT     H113771   3.376   5.499   2.691
 4583WAT     H213772   3.327   5.441   2.560
 4584WAT      O13773   3.566   5.627   1.333
 4584WAT     H113774   3.659   5.614   1.312
 4584WAT     H213775   3.564   5.635   1.428
 4585WAT      O13776   3.574   5.704   1.595
 4585WAT     H113777   3.494   5.698   1.648
 4585WAT     H213778   3.594   5.798   1.594
 4586WAT      O13779   1.898   5.434   2.593
 4586WAT     H113780   1.863   5.480   2.670
 4586WAT     H213781   1.865   5.345   2.601
 4587WAT      O13782   2.649   5.553   2.945
 4587WAT     H113783   2.643   5.612   3.020
 4587WAT     H213784   2.743   5.542   2.931
 4588WAT      O13785   2.913   5.519   2.909
 4588WAT     H113786   2.974   5.551   2.843
 4588WAT     H213787   2.967   5.470   2.971
 4589WAT      O13788   1.965   5.387   2.921
 4589WAT     H113789   2.020   5.369   2.844
 4589WAT     H213790   1.972   5.308   2.974
 4590WAT      O13791   2.987   5.375   2.542
 4590WAT     H113792   2.900   5.408   2.522
 4590WAT     H213793   2.976   5.328   2.624
 4591WAT      O13794   3.078   5.596   2.680
 4591WAT     H113795   3.045   5.514   2.642
 4591WAT     H213796   3.173   5.592   2.668
 4592WAT      O13797   2.762   5.467   2.436
 4592WAT     H113798   2.683   5.514   2.464
 4592WAT     H213799   2.732   5.376   2.425
 4593WAT      O13800   3.217   5.537   2.240
 4593WAT     H113801   3.261   5.532   2.155
 4593WAT     H213802   3.190   5.629   2.247
 4594WAT      O13803   3.403   5.500   2.041
 4594WAT     H113804   3.397   5.406   2.027
 4594WAT     H213805   3.481   5.511   2.096
 4595WAT      O13806   1.896   5.497   1.688
 4595WAT     H113807   1.972   5.509   1.631
 4595WAT     H213808   1.850   5.581   1.683
 4596WAT      O13809   2.550   5.709   1.987
 4596WAT     H113810   2.469   5.671   1.953
 4596WAT     H213811   2.601   5.633   2.017
 4597WAT      O13812   3.001   5.375   2.111
 4597WAT     H113813   3.061   5.432   2.158
 4597WAT     H213814   2.926   5.432   2.088
 4598WAT      O13815   3.315   5.415   1.638
 4598WAT     H113816   3.334   5.505   1.665
 4598WAT     H213817   3.236   5.392   1.687
 4599WAT      O13818   2.133   5.550   1.542
 4599WAT     H113819   2.186   5.471   1.529
 4599WAT     H213820   2.197   5.618   1.565
 4600WAT      O13821   2.353   5.524   1.847
 4600WAT     H113822   2.290   5.454   1.864
 4600WAT     H213823   2.299   5.600   1.826
 4601WAT      O13824   2.365   5.452   3.091
 4601WAT     H113825   2.337   5.502   3.014
 4601WAT     H213826   2.404   5.372   3.054
 4602WAT      O13827   3.026   5.393   3.149
 4602WAT     H113828   3.014   5.425   3.238
 4602WAT     H213829   3.107   5.433   3.119
 4603WAT      O13830   2.729   6.373   0.373
 4603WAT     H113831   2.652   6.325   0.402
 4603WAT     H213832   2.794   6.305   0.356
 4604WAT      O13833   2.131   6.404   0.461
 4604WAT     H113834   2.048   6.378   0.501
 4604WAT     H213835   2.192   6.411   0.534
 4605WAT      O13836   1.768   6.160   0.428
 4605WAT     H113837   1.825   6.083   0.428
 4605WAT     H213838   1.768   6.190   0.337
 4606WAT      O13839   2.673   6.640   0.374
 4606WAT     H113840   2.666   6.546   0.358
 4606WAT     H213841   2.750   6.649   0.431
 4607WAT      O13842   1.892   5.701   0.606
 4607WAT     H113843   1.874   5.611   0.634
 4607WAT     H213844   1.852   5.756   0.674
 4608WAT      O13845   2.776   5.921   0.397
 4608WAT     H113846   2.814   5.834   0.385
 4608WAT     H213847   2.767   5.955   0.307
 4609WAT      O13848   1.954   5.951   0.467
 4609WAT     H113849   2.022   5.977   0.529
 4609WAT     H213850   1.923   5.867   0.501
 4610WAT      O13851   2.374   6.055   0.376
 4610WAT     H113852   2.424   6.105   0.440
 4610WAT     H213853   2.427   5.978   0.358
 4611WAT      O13854   3.584   5.872   0.746
 4611WAT     H113855   3.513   5.911   0.694
 4611WAT     H213856   3.610   5.942   0.806
 4612WAT      O13857   2.202   5.519   0.803
 4612WAT     H113858   2.202   5.571   0.722
 4612WAT     H213859   2.119   5.471   0.800
 4613WAT      O13860   2.327   6.483   0.620
 4613WAT     H113861   2.294   6.546   0.685
 4613WAT     H213862   2.345   6.536   0.542
 4614WAT      O13863   3.178   5.865   0.367
 4614WAT     H113864   3.108   5.893   0.425
 4614WAT     H213865   3.214   5.946   0.331
 4615WAT      O13866   2.170   5.690   0.603
 4615WAT     H113867   2.204   5.775   0.574
 4615WAT     H213868   2.076   5.705   0.615
 4616WAT      O13869   3.485   5.809   0.406
 4616WAT     H113870   3.390   5.813   0.419
 4616WAT     H213871   3.518   5.891   0.445
 4617WAT      O13872   3.033   6.501   0.598
 4617WAT     H113873   3.075   6.480   0.514
 4617WAT     H213874   3.106   6.527   0.655
 4618WAT      O13875   3.428   6.341   0.607
 4618WAT     H113876   3.345   6.348   0.559
 4618WAT     H213877   3.487   6.399   0.560
 4619WAT      O13878   3.124   6.020   0.701
 4619WAT     H113879   3.083   6.102   0.727
 4619WAT     H213880   3.051   5.961   0.682
 4620WAT      O13881   2.385   6.667   0.404
 4620WAT     H113882   2.355   6.606   0.336
 4620WAT     H213883   2.480   6.671   0.393
 4621WAT      O13884   2.209   5.976   0.566
 4621WAT     H113885   2.264   5.987   0.488
 4621WAT     H213886   2.260   6.013   0.637
 4622WAT      O13887   2.294   6.641   1.069
 4622WAT     H113888   2.204   6.663   1.094
 4622WAT     H213889   2.296   6.653   0.974
 4623WAT      O13890   2.176   6.328   0.927
 4623WAT     H113891   2.163   6.415   0.963
 4623WAT     H213892   2.088   6.294   0.912
 4624WAT      O13893   1.772   6.505   0.518
 4624WAT     H113894   1.779   6.518   0.424
 4624WAT     H213895   1.833   6.434   0.538
 4625WAT      O13896   3.492   6.719   0.993
 4625WAT     H113897   3.504   6.696   0.901
 4625WAT     H213898   3.496   6.636   1.040
 4626WAT      O13899   3.477   5.925   1.090
 4626WAT     H113900   3.415   5.976   1.037
 4626WAT     H213901   3.445   5.835   1.084
 4627WAT      O13902   1.777   6.609   0.772
 4627WAT     H113903   1.794   6.562   0.690
 4627WAT     H213904   1.824   6.558   0.839
 4628WAT      O13905   2.254   5.522   0.276
 4628WAT     H113906   2.210   5.600   0.243
 4628WAT     H213907   2.310   5.554   0.347
 4629WAT      O13908   2.683   5.809   0.836
 4629WAT     H113909   2.637   5.830   0.917
 4629WAT     H213910   2.643   5.727   0.806
 4630WAT      O13911   3.183   5.931   0.949
 4630WAT     H113912   3.098   5.901   0.981
 4630WAT     H213913   3.167   5.955   0.858
 4631WAT      O13914   2.893   6.081   1.159
 4631WAT     H113915   2.925   5.997   1.125
 4631WAT     H213916   2.971   6.133   1.174
 4632WAT      O13917   2.458   5.577   0.462
 4632WAT     H113918   2.488   5.667   0.454
 4632WAT     H213919   2.513   5.528   0.400
 4633WAT      O13920   2.478   6.124   1.115
 4633WAT     H113921   2.468   6.030   1.100
 4633WAT     H213922   2.562   6.146   1.076
 4634WAT      O13923   1.991   5.765   0.931
 4634WAT     H113924   1.951   5.850   0.951
 4634WAT     H213925   1.922   5.702   0.950
 4635WAT      O13926   2.648   5.774   1.238
 4635WAT     H113927   2.579   5.754   1.301
 4635WAT     H213928   2.722   5.802   1.291
 4636WAT      O13929   1.721   5.558   0.334
 4636WAT     H113930   1.692   5.615   0.405
 4636WAT     H213931   1.795   5.510   0.370
 4637WAT      O13932   2.876   6.158   0.521
 4637WAT     H113933   2.803   6.209   0.556
 4637WAT     H213934   2.836   6.076   0.491
 4638WAT      O13935   2.519   5.825   0.362
 4638WAT     H113936   2.520   5.781   0.277
 4638WAT     H213937   2.609   5.857   0.372
 4639WAT      O13938   2.105   5.814   0.258
 4639WAT     H113939   2.071   5.861   0.333
 4639WAT     H213940   2.028   5.768   0.222
 4640WAT      O13941   2.922   5.703   0.462
 4640WAT     H113942   2.924   5.748   0.547
 4640WAT     H213943   2.897   5.613   0.484
 4641WAT      O13944   3.265   5.444   1.046
 4641WAT     H113945   3.297   5.371   1.099
 4641WAT     H213946   3.268   5.412   0.956
 4642WAT      O13947   1.935   6.546   0.988
 4642WAT     H113948   1.896   6.482   1.048
 4642WAT     H213949   1.966   6.617   1.045
 4643WAT      O13950   2.550   6.231   0.536
 4643WAT     H113951   2.586   6.184   0.611
 4643WAT     H213952   2.531   6.319   0.570
 4644WAT      O13953   2.329   6.135   0.768
 4644WAT     H113954   2.298   6.223   0.791
 4644WAT     H213955   2.424   6.141   0.772
 4645WAT      O13956   3.257   6.456   0.407
 4645WAT     H113957   3.329   6.505   0.368
 4645WAT     H213958   3.237   6.388   0.343
 4646WAT      O13959   2.795   6.463   0.996
 4646WAT     H113960   2.789   6.371   0.970
 4646WAT     H213961   2.732   6.472   1.067
 4647WAT      O13962   2.186   6.523   0.192
 4647WAT     H113963   2.238   6.442   0.186
 4647WAT     H213964   2.141   6.517   0.276
 4648WAT      O13965   1.934   6.219   0.883
 4648WAT     H113966   1.898   6.286   0.942
 4648WAT     H213967   1.905   6.136   0.920
 4649WAT      O13968   2.254   6.265   1.171
 4649WAT     H113969   2.224   6.280   1.081
 4649WAT     H213970   2.331   6.209   1.162
 4650WAT      O13971   3.410   6.409   0.905
 4650WAT     H113972   3.337   6.468   0.886
 4650WAT     H213973   3.462   6.408   0.826
 4651WAT      O13974   2.963   6.582   0.255
 4651WAT     H113975   2.998   6.522   0.189
 4651WAT     H213976   2.874   6.549   0.272
 4652WAT      O13977   1.792   5.568   0.951
 4652WAT     H113978   1.720   5.588   1.011
 4652WAT     H213979   1.834   5.491   0.988
 4653WAT      O13980   2.941   5.818   0.726
 4653WAT     H113981   2.978   5.735   0.758
 4653WAT     H213982   2.855   5.824   0.767
 4654WAT      O13983   2.637   6.083   0.748
 4654WAT     H113984   2.687   6.130   0.814
 4654WAT     H213985   2.651   5.991   0.769
 4655WAT      O13986   3.358   5.705   0.832
 4655WAT     H113987   3.307   5.779   0.866
 4655WAT     H213988   3.439   5.743   0.801
 4656WAT      O13989   3.187   6.229   0.177
 4656WAT     H113990   3.093   6.230   0.194
 4656WAT     H213991   3.218   6.150   0.221
 4657WAT      O13992   2.919   6.685   1.225
 4657WAT     H113993   2.858   6.687   1.151
 4657WAT     H213994   2.888   6.611   1.279
 4658WAT      O13995   1.807   6.323   1.125
 4658WAT     H113996   1.857   6.265   1.182
 4658WAT     H213997   1.733   6.351   1.179
 4659WAT      O13998   2.512   6.463   1.078
 4659WAT     H113999   2.436   6.520   1.070
 4659WAT     H214000   2.531   6.434   0.989
 4660WAT      O14001   3.227   6.636   1.134
 4660WAT     H114002   3.301   6.670   1.084
 4660WAT     H214003   3.150   6.653   1.079
 4661WAT      O14004   2.010   6.137   1.214
 4661WAT     H114005   2.014   6.107   1.305
 4661WAT     H214006   2.096   6.177   1.198
 4662WAT      O14007   2.204   5.995   1.011
 4662WAT     H114008   2.151   5.946   0.948
 4662WAT     H214009   2.271   6.038   0.958
 4663WAT      O14010   3.094   6.441   0.987
 4663WAT     H114011   3.135   6.457   1.072
 4663WAT     H214012   3.001   6.454   1.004
 4664WAT      O14013   3.141   6.175   1.188
 4664WAT     H114014   3.199   6.100   1.179
 4664WAT     H214015   3.159   6.228   1.110
 4665WAT      O14016   2.253   5.691   1.019
 4665WAT     H114017   2.244   5.630   0.946
 4665WAT     H214018   2.195   5.764   0.996
 4666WAT      O14019   2.530   5.547   0.722
 4666WAT     H114020   2.485   5.549   0.638
 4666WAT     H214021   2.466   5.507   0.782
 4667WAT      O14022   2.570   6.437   0.784
 4667WAT     H114023   2.612   6.521   0.767
 4667WAT     H214024   2.478   6.450   0.761
 4668WAT      O14025   2.804   6.210   0.923
 4668WAT     H114026   2.816   6.150   0.997
 4668WAT     H214027   2.890   6.214   0.881
 4669WAT      O14028   3.038   6.265   0.780
 4669WAT     H114029   2.985   6.318   0.720
 4669WAT     H214030   3.072   6.328   0.843
 4670WAT      O14031   2.481   5.864   1.049
 4670WAT     H114032   2.540   5.833   1.117
 4670WAT     H214033   2.399   5.817   1.064
 4671WAT      O14034   2.962   5.826   1.072
 4671WAT     H114035   2.894   5.760   1.065
 4671WAT     H214036   3.035   5.781   1.116
 4672WAT      O14037   3.564   6.494   0.223
 4672WAT     H114038   3.601   6.416   0.183
 4672WAT     H214039   3.628   6.563   0.205
 4673WAT      O14040   3.262   6.633   0.765
 4673WAT     H114041   3.181   6.676   0.791
 4673WAT     H214042   3.303   6.694   0.703
 4674WAT      O14043   1.917   6.300   0.616
 4674WAT     H114044   1.954   6.291   0.704
 4674WAT     H214045   1.860   6.224   0.606
 4675WAT      O14046   3.397   6.147   0.917
 4675WAT     H114047   3.374   6.124   0.827
 4675WAT     H214048   3.423   6.239   0.913
 4676WAT      O14049   1.872   5.991   1.006
 4676WAT     H114050   1.783   5.988   1.040
 4676WAT     H214051   1.926   6.011   1.083
 4677WAT      O14052   3.241   5.669   1.195
 4677WAT     H114053   3.329   5.670   1.233
 4677WAT     H214054   3.242   5.596   1.134
 4678WAT      O14055   3.386   6.055   0.284
 4678WAT     H114056   3.438   6.005   0.221
 4678WAT     H214057   3.444   6.068   0.358
 4679WAT      O14058   3.404   6.063   0.636
 4679WAT     H114059   3.309   6.060   0.648
 4679WAT     H214060   3.422   6.154   0.613
 4680WAT      O14061   1.923   5.418   0.441
 4680WAT     H114062   1.987   5.363   0.397
 4680WAT     H214063   1.965   5.444   0.523
 4681WAT      O14064   3.312   5.438   0.777
 4681WAT     H114065   3.376   5.499   0.814
 4681WAT     H214066   3.327   5.441   0.683
 4682WAT      O14067   1.898   5.434   0.716
 4682WAT     H114068   1.863   5.480   0.792
 4682WAT     H214069   1.865   5.345   0.724
 4683WAT      O14070   2.649   5.553   1.068
 4683WAT     H114071   2.643   5.612   1.143
 4683WAT     H214072   2.743   5.542   1.053
 4684WAT      O14073   2.913   5.519   1.032
 4684WAT     H114074   2.974   5.551   0.965
 4684WAT     H214075   2.967   5.470   1.094
 4685WAT      O14076   1.965   5.387   1.043
 4685WAT     H114077   2.020   5.369   0.967
 4685WAT     H214078   1.972   5.308   1.097
 4686WAT      O14079   2.987   5.375   0.664
 4686WAT     H114080   2.900   5.408   0.644
 4686WAT     H214081   2.976   5.328   0.747
 4687WAT      O14082   3.078   5.596   0.803
 4687WAT     H114083   3.045   5.514   0.765
 4687WAT     H214084   3.173   5.592   0.790
 4688WAT      O14085   2.762   5.467   0.558
 4688WAT     H114086   2.683   5.514   0.586
 4688WAT     H214087   2.732   5.376   0.547
 4689WAT      O14088   3.217   5.537   0.363
 4689WAT     H114089   3.261   5.532   0.278
 4689WAT     H214090   3.190   5.629   0.370
 4690WAT      O14091   3.001   5.375   0.233
 4690WAT     H114092   3.061   5.432   0.281
 4690WAT     H214093   2.926   5.432   0.211
 4691WAT      O14094   2.365   5.452   1.213
 4691WAT     H114095   2.337   5.502   1.137
 4691WAT     H214096   2.404   5.372   1.177
 4692WAT      O14097   3.026   5.393   1.271
 4692WAT     H114098   3.014   5.425   1.361
 4692WAT     H214099   3.107   5.433   1.242
 4693WAT      O14100   2.916   4.318   5.817
 4693WAT     H114101   2.908   4.226   5.790
 4693WAT     H214102   2.875   4.367   5.747
 4694WAT      O14103   2.729   4.495   6.005
 4694WAT     H114104   2.652   4.447   6.034
 4694WAT     H214105   2.794   4.427   5.988
 4695WAT      O14106   3.131   4.936   5.883
 4695WAT     H114107   3.085   4.859   5.916
 4695WAT     H214108   3.213   4.939   5.934
 4696WAT      O14109   2.129   4.930   6.113
 4696WAT     H114110   2.159   4.841   6.095
 4696WAT     H214111   2.203   4.986   6.090
 4697WAT      O14112   1.972   4.023   5.472
 4697WAT     H114113   1.883   4.057   5.461
 4697WAT     H214114   2.000   4.003   5.382
 4698WAT      O14115   1.768   4.283   6.060
 4698WAT     H114116   1.825   4.206   6.060
 4698WAT     H214117   1.768   4.313   5.969
 4699WAT      O14118   2.754   5.165   5.845
 4699WAT     H114119   2.692   5.210   5.788
 4699WAT     H214120   2.840   5.180   5.805
 4700WAT      O14121   2.673   4.763   6.006
 4700WAT     H114122   2.666   4.669   5.990
 4700WAT     H214123   2.750   4.772   6.063
 4701WAT      O14124   2.776   4.044   6.029
 4701WAT     H114125   2.814   3.956   6.018
 4701WAT     H214126   2.767   4.077   5.940
 4702WAT      O14127   2.189   3.881   5.575
 4702WAT     H114128   2.200   3.971   5.606
 4702WAT     H214129   2.098   3.876   5.546
 4703WAT      O14130   3.155   3.793   5.722
 4703WAT     H114131   3.237   3.744   5.726
 4703WAT     H214132   3.158   3.852   5.797
 4704WAT      O14133   2.374   4.178   6.008
 4704WAT     H114134   2.424   4.228   6.072
 4704WAT     H214135   2.427   4.100   5.991
 4705WAT      O14136   2.841   4.653   5.585
 4705WAT     H114137   2.779   4.699   5.528
 4705WAT     H214138   2.892   4.722   5.626
 4706WAT      O14139   3.178   3.987   5.999
 4706WAT     H114140   3.108   4.016   6.057
 4706WAT     H214141   3.214   4.068   5.963
 4707WAT      O14142   1.777   4.722   5.322
 4707WAT     H114143   1.740   4.770   5.249
 4707WAT     H214144   1.803   4.789   5.385
 4708WAT      O14145   3.485   3.932   6.038
 4708WAT     H114146   3.390   3.935   6.052
 4708WAT     H214147   3.518   4.013   6.077
 4709WAT      O14148   2.538   3.562   5.868
 4709WAT     H114149   2.569   3.506   5.796
 4709WAT     H214150   2.445   3.575   5.850
 4710WAT      O14151   3.093   5.133   6.097
 4710WAT     H114152   3.095   5.093   6.010
 4710WAT     H214153   3.038   5.211   6.087
 4711WAT      O14154   3.223   4.806   5.606
 4711WAT     H114155   3.212   4.711   5.618
 4711WAT     H214156   3.223   4.842   5.695
 4712WAT      O14157   2.777   4.368   5.542
 4712WAT     H114158   2.684   4.362   5.565
 4712WAT     H214159   2.792   4.462   5.530
 4713WAT      O14160   2.776   3.995   5.241
 4713WAT     H114161   2.682   4.011   5.250
 4713WAT     H214162   2.808   4.067   5.187
 4714WAT      O14163   3.180   4.524   5.592
 4714WAT     H114164   3.118   4.491   5.527
 4714WAT     H214165   3.178   4.460   5.663
 4715WAT      O14166   2.338   4.421   5.820
 4715WAT     H114167   2.297   4.350   5.770
 4715WAT     H214168   2.346   4.386   5.909
 4716WAT      O14169   2.385   4.789   6.036
 4716WAT     H114170   2.355   4.729   5.968
 4716WAT     H214171   2.480   4.793   6.025
 4717WAT      O14172   2.998   4.448   5.293
 4717WAT     H114173   3.042   4.364   5.278
 4717WAT     H214174   3.069   4.512   5.301
 4718WAT      O14175   2.809   4.942   5.690
 4718WAT     H114176   2.853   5.016   5.648
 4718WAT     H214177   2.803   4.966   5.782
 4719WAT      O14178   3.356   3.574   5.124
 4719WAT     H114179   3.325   3.583   5.214
 4719WAT     H214180   3.432   3.631   5.119
 4720WAT      O14181   2.008   4.310   5.570
 4720WAT     H114182   1.996   4.383   5.509
 4720WAT     H214183   1.977   4.233   5.522
 4721WAT      O14184   1.896   4.797   5.792
 4721WAT     H114185   1.855   4.812   5.706
 4721WAT     H214186   1.985   4.769   5.771
 4722WAT      O14187   3.075   5.241   5.425
 4722WAT     H114188   3.059   5.212   5.515
 4722WAT     H214189   3.059   5.163   5.372
 4723WAT      O14190   2.323   5.219   5.603
 4723WAT     H114191   2.306   5.127   5.582
 4723WAT     H214192   2.238   5.255   5.627
 4724WAT      O14193   3.046   4.992   5.281
 4724WAT     H114194   2.976   4.992   5.215
 4724WAT     H214195   3.120   4.949   5.238
 4725WAT      O14196   3.002   5.154   5.689
 4725WAT     H114197   3.048   5.076   5.720
 4725WAT     H214198   3.036   5.225   5.743
 4726WAT      O14199   2.254   3.645   5.908
 4726WAT     H114200   2.210   3.723   5.875
 4726WAT     H214201   2.310   3.677   5.979
 4727WAT      O14202   2.566   3.607   5.396
 4727WAT     H114203   2.504   3.606   5.469
 4727WAT     H214204   2.557   3.520   5.357
 4728WAT      O14205   2.458   3.699   6.094
 4728WAT     H114206   2.488   3.790   6.086
 4728WAT     H214207   2.513   3.650   6.033
 4729WAT      O14208   2.234   4.157   5.681
 4729WAT     H114209   2.211   4.135   5.771
 4729WAT     H214210   2.155   4.200   5.646
 4730WAT      O14211   2.957   4.158   5.541
 4730WAT     H114212   2.897   4.230   5.522
 4730WAT     H214213   3.011   4.151   5.463
 4731WAT      O14214   2.817   4.021   5.744
 4731WAT     H114215   2.856   4.053   5.663
 4731WAT     H214216   2.853   3.933   5.755
 4732WAT      O14217   1.721   3.680   5.966
 4732WAT     H114218   1.692   3.737   6.037
 4732WAT     H214219   1.795   3.632   6.002
 4733WAT      O14220   1.740   4.074   5.087
 4733WAT     H114221   1.731   4.169   5.101
 4733WAT     H214222   1.704   4.060   4.999
 4734WAT      O14223   2.519   3.948   5.994
 4734WAT     H114224   2.520   3.904   5.909
 4734WAT     H214225   2.609   3.980   6.005
 4735WAT      O14226   2.105   3.936   5.890
 4735WAT     H114227   2.071   3.984   5.966
 4735WAT     H214228   2.028   3.891   5.854
 4736WAT      O14229   2.526   4.048   5.293
 4736WAT     H114230   2.538   4.044   5.388
 4736WAT     H214231   2.487   4.134   5.277
 4737WAT      O14232   2.427   4.279   5.233
 4737WAT     H114233   2.370   4.234   5.170
 4737WAT     H214234   2.498   4.315   5.179
 4738WAT      O14235   1.836   3.828   5.782
 4738WAT     H114236   1.807   3.792   5.865
 4738WAT     H214237   1.830   3.755   5.720
 4739WAT      O14238   2.181   4.679   5.460
 4739WAT     H114239   2.104   4.625   5.444
 4739WAT     H214240   2.254   4.627   5.426
 4740WAT      O14241   3.257   4.578   6.039
 4740WAT     H114242   3.329   4.628   6.000
 4740WAT     H214243   3.237   4.510   5.975
 4741WAT      O14244   2.803   3.718   5.454
 4741WAT     H114245   2.722   3.668   5.446
 4741WAT     H214246   2.784   3.802   5.412
 4742WAT      O14247   3.075   4.155   5.283
 4742WAT     H114248   3.164   4.186   5.266
 4742WAT     H214249   3.072   4.067   5.244
 4743WAT      O14250   2.186   4.645   5.824
 4743WAT     H114251   2.238   4.565   5.818
 4743WAT     H214252   2.141   4.639   5.908
 4744WAT      O14253   2.674   4.772   5.351
 4744WAT     H114254   2.709   4.846   5.302
 4744WAT     H214255   2.592   4.803   5.387
 4745WAT      O14256   3.302   4.286   5.230
 4745WAT     H114257   3.294   4.329   5.145
 4745WAT     H214258   3.374   4.332   5.273
 4746WAT      O14259   3.405   4.971   5.503
 4746WAT     H114260   3.341   4.906   5.530
 4746WAT     H214261   3.366   5.012   5.425
 4747WAT      O14262   2.963   4.704   5.888
 4747WAT     H114263   2.998   4.644   5.822
 4747WAT     H214264   2.874   4.672   5.905
 4748WAT      O14265   2.571   4.780   5.628
 4748WAT     H114266   2.640   4.835   5.666
 4748WAT     H214267   2.493   4.835   5.632
 4749WAT      O14268   1.785   4.342   5.177
 4749WAT     H114269   1.872   4.370   5.206
 4749WAT     H214270   1.736   4.423   5.166
 4750WAT      O14271   2.502   4.481   5.590
 4750WAT     H114272   2.547   4.562   5.612
 4750WAT     H214273   2.467   4.449   5.673
 4751WAT      O14274   2.092   3.515   5.637
 4751WAT     H114275   2.079   3.514   5.732
 4751WAT     H214276   2.009   3.549   5.602
 4752WAT      O14277   3.244   4.860   5.157
 4752WAT     H114278   3.221   4.789   5.216
 4752WAT     H214279   3.205   4.836   5.073
 4753WAT      O14280   1.822   5.263   5.234
 4753WAT     H114281   1.858   5.323   5.169
 4753WAT     H214282   1.808   5.318   5.311
 4754WAT      O14283   3.202   4.652   5.323
 4754WAT     H114284   3.173   4.698   5.402
 4754WAT     H214285   3.282   4.606   5.350
 4755WAT      O14286   2.424   5.001   5.316
 4755WAT     H114287   2.423   5.075   5.254
 4755WAT     H214288   2.332   4.977   5.325
 4756WAT      O14289   1.984   4.524   5.390
 4756WAT     H114290   1.923   4.598   5.391
 4756WAT     H214291   2.031   4.533   5.308
 4757WAT      O14292   3.278   3.836   5.439
 4757WAT     H114293   3.215   3.846   5.367
 4757WAT     H214294   3.228   3.858   5.518
 4758WAT      O14295   2.722   5.008   5.182
 4758WAT     H114296   2.732   4.987   5.089
 4758WAT     H214297   2.632   4.982   5.203
 4759WAT      O14298   2.475   4.064   5.580
 4759WAT     H114299   2.404   4.110   5.624
 4759WAT     H214300   2.503   3.998   5.644
 4760WAT      O14301   2.878   3.736   5.724
 4760WAT     H114302   2.865   3.738   5.629
 4760WAT     H214303   2.973   3.741   5.736
 4761WAT      O14304   2.586   5.260   5.652
 4761WAT     H114305   2.612   5.256   5.559
 4761WAT     H214306   2.492   5.247   5.651
 4762WAT      O14307   2.295   3.894   5.318
 4762WAT     H114308   2.380   3.938   5.311
 4762WAT     H214309   2.258   3.926   5.401
 4763WAT      O14310   3.187   4.352   5.809
 4763WAT     H114311   3.093   4.353   5.827
 4763WAT     H214312   3.218   4.273   5.854
 4764WAT      O14313   2.185   4.520   5.165
 4764WAT     H114314   2.261   4.509   5.221
 4764WAT     H214315   2.193   4.450   5.100
 4765WAT      O14316   2.054   4.263   5.234
 4765WAT     H114317   2.062   4.168   5.245
 4765WAT     H214318   2.143   4.296   5.244
 4766WAT      O14319   3.387   5.069   5.977
 4766WAT     H114320   3.400   5.151   6.024
 4766WAT     H214321   3.474   5.048   5.942
 4767WAT      O14322   2.134   5.278   5.944
 4767WAT     H114323   2.208   5.223   5.971
 4767WAT     H214324   2.173   5.364   5.930
 4768WAT      O14325   1.823   4.885   5.531
 4768WAT     H114326   1.730   4.909   5.530
 4768WAT     H214327   1.869   4.967   5.519
 4769WAT      O14328   2.445   5.195   5.126
 4769WAT     H114329   2.525   5.224   5.081
 4769WAT     H214330   2.393   5.152   5.058
 4770WAT      O14331   3.351   5.118   5.268
 4770WAT     H114332   3.322   5.077   5.187
 4770WAT     H214333   3.331   5.211   5.256
 4771WAT      O14334   2.497   4.717   5.113
 4771WAT     H114335   2.487   4.656   5.185
 4771WAT     H214336   2.480   4.665   5.034
 4772WAT      O14337   2.821   4.623   5.173
 4772WAT     H114338   2.766   4.668   5.237
 4772WAT     H214339   2.883   4.573   5.225
 4773WAT      O14340   2.388   4.519   5.363
 4773WAT     H114341   2.430   4.503   5.447
 4773WAT     H214342   2.400   4.438   5.313
 4774WAT      O14343   2.639   4.422   5.087
 4774WAT     H114344   2.691   4.350   5.051
 4774WAT     H214345   2.704   4.486   5.117
 4775WAT      O14346   2.278   4.127   5.057
 4775WAT     H114347   2.257   4.040   5.093
 4775WAT     H214348   2.260   4.118   4.963
 4776WAT      O14349   3.025   3.608   5.310
 4776WAT     H114350   3.053   3.523   5.346
 4776WAT     H214351   2.948   3.631   5.361
 4777WAT      O14352   2.157   3.837   5.056
 4777WAT     H114353   2.188   3.837   4.965
 4777WAT     H214354   2.231   3.802   5.106
 4778WAT      O14355   2.479   3.731   5.155
 4778WAT     H114356   2.444   3.663   5.097
 4778WAT     H214357   2.499   3.685   5.236
 4779WAT      O14358   2.696   5.230   5.316
 4779WAT     H114359   2.785   5.264   5.319
 4779WAT     H214360   2.699   5.158   5.254
 4780WAT      O14361   2.060   4.767   5.139
 4780WAT     H114362   2.103   4.821   5.205
 4780WAT     H214363   2.108   4.685   5.140
 4781WAT      O14364   1.781   5.046   5.884
 4781WAT     H114365   1.814   4.959   5.861
 4781WAT     H214366   1.824   5.067   5.968
 4782WAT      O14367   2.241   4.879   5.650
 4782WAT     H114368   2.211   4.867   5.741
 4782WAT     H214369   2.230   4.793   5.610
 4783WAT      O14370   3.518   4.857   5.121
 4783WAT     H114371   3.435   4.864   5.168
 4783WAT     H214372   3.535   4.946   5.090
 4784WAT      O14373   3.463   4.532   5.371
 4784WAT     H114374   3.539   4.589   5.382
 4784WAT     H214375   3.465   4.475   5.448
 4785WAT      O14376   1.813   4.384   5.794
 4785WAT     H114377   1.748   4.357   5.730
 4785WAT     H214378   1.897   4.373   5.749
 4786WAT      O14379   3.564   4.617   5.856
 4786WAT     H114380   3.601   4.539   5.815
 4786WAT     H214381   3.628   4.686   5.838
 4787WAT      O14382   3.468   4.561   5.087
 4787WAT     H114383   3.496   4.652   5.074
 4787WAT     H214384   3.450   4.555   5.180
 4788WAT      O14385   3.108   3.863   5.216
 4788WAT     H114386   3.150   3.845   5.132
 4788WAT     H214387   3.078   3.778   5.247
 4789WAT      O14388   3.458   4.355   5.586
 4789WAT     H114389   3.421   4.278   5.543
 4789WAT     H214390   3.385   4.393   5.635
 4790WAT      O14391   1.735   4.105   5.388
 4790WAT     H114392   1.644   4.131   5.371
 4790WAT     H214393   1.783   4.132   5.310
 4791WAT      O14394   3.386   4.177   5.916
 4791WAT     H114395   3.438   4.128   5.853
 4791WAT     H214396   3.444   4.191   5.991
 4792WAT      O14397   1.989   4.011   5.179
 4792WAT     H114398   2.060   3.968   5.131
 4792WAT     H214399   1.917   4.017   5.116
 4793WAT      O14400   1.954   3.616   5.083
 4793WAT     H114401   2.026   3.670   5.115
 4793WAT     H214402   1.981   3.589   4.996
 4794WAT      O14403   3.335   4.103   5.510
 4794WAT     H114404   3.384   4.080   5.589
 4794WAT     H214405   3.315   4.019   5.468
 4795WAT      O14406   3.477   3.966   5.763
 4795WAT     H114407   3.466   3.951   5.857
 4795WAT     H214408   3.554   3.914   5.739
 4796WAT      O14409   3.566   3.750   5.088
 4796WAT     H114410   3.659   3.736   5.067
 4796WAT     H214411   3.564   3.757   5.183
 4797WAT      O14412   3.574   3.827   5.350
 4797WAT     H114413   3.494   3.820   5.403
 4797WAT     H214414   3.594   3.920   5.349
 4798WAT      O14415   3.268   5.231   5.749
 4798WAT     H114416   3.328   5.198   5.682
 4798WAT     H214417   3.294   5.183   5.829
 4799WAT      O14418   3.323   5.296   6.132
 4799WAT     H114419   3.277   5.371   6.095
 4799WAT     H214420   3.260   5.224   6.127
 4800WAT      O14421   2.366   5.126   6.050
 4800WAT     H114422   2.418   5.065   5.997
 4800WAT     H214423   2.431   5.177   6.099
 4801WAT      O14424   3.217   3.660   5.995
 4801WAT     H114425   3.261   3.654   5.910
 4801WAT     H214426   3.190   3.751   6.002
 4802WAT      O14427   3.403   3.623   5.796
 4802WAT     H114428   3.397   3.528   5.781
 4802WAT     H214429   3.481   3.634   5.851
 4803WAT      O14430   1.834   5.237   5.692
 4803WAT     H114431   1.817   5.173   5.762
 4803WAT     H214432   1.747   5.257   5.657
 4804WAT      O14433   1.896   3.620   5.443
 4804WAT     H114434   1.972   3.631   5.385
 4804WAT     H214435   1.850   3.704   5.438
 4805WAT      O14436   2.550   3.831   5.742
 4805WAT     H114437   2.469   3.794   5.708
 4805WAT     H214438   2.601   3.756   5.772
 4806WAT      O14439   3.001   3.498   5.866
 4806WAT     H114440   3.061   3.555   5.913
 4806WAT     H214441   2.926   3.554   5.843
 4807WAT      O14442   3.315   3.538   5.393
 4807WAT     H114443   3.334   3.628   5.420
 4807WAT     H214444   3.236   3.515   5.442
 4808WAT      O14445   1.995   5.106   5.437
 4808WAT     H114446   1.942   5.144   5.367
 4808WAT     H214447   1.987   5.169   5.509
 4809WAT      O14448   2.133   3.673   5.297
 4809WAT     H114449   2.186   3.594   5.284
 4809WAT     H214450   2.197   3.740   5.320
 4810WAT      O14451   2.353   3.646   5.602
 4810WAT     H114452   2.290   3.576   5.619
 4810WAT     H214453   2.299   3.722   5.581
 4811WAT      O14454   3.470   5.262   5.569
 4811WAT     H114455   3.488   5.193   5.505
 4811WAT     H214456   3.400   5.314   5.530
 4812WAT      O14457   2.254   5.301   5.324
 4812WAT     H114458   2.328   5.272   5.270
 4812WAT     H214459   2.280   5.277   5.413
 4813WAT      O14460   2.171   4.913   5.325
 4813WAT     H114461   2.108   4.959   5.380
 4813WAT     H214462   2.182   4.828   5.368
 4814WAT      O14463   2.916   4.318   3.940
 4814WAT     H114464   2.908   4.226   3.913
 4814WAT     H214465   2.875   4.367   3.869
 4815WAT      O14466   2.729   4.495   4.128
 4815WAT     H114467   2.652   4.447   4.157
 4815WAT     H214468   2.794   4.427   4.111
 4816WAT      O14469   2.131   4.527   4.216
 4816WAT     H114470   2.048   4.501   4.256
 4816WAT     H214471   2.192   4.534   4.289
 4817WAT      O14472   3.131   4.936   4.006
 4817WAT     H114473   3.085   4.859   4.039
 4817WAT     H214474   3.213   4.939   4.057
 4818WAT      O14475   2.129   4.930   4.235
 4818WAT     H114476   2.159   4.841   4.217
 4818WAT     H214477   2.203   4.986   4.213
 4819WAT      O14478   1.972   4.023   3.594
 4819WAT     H114479   1.883   4.057   3.584
 4819WAT     H214480   2.000   4.003   3.505
 4820WAT      O14481   1.768   4.283   4.183
 4820WAT     H114482   1.825   4.206   4.183
 4820WAT     H214483   1.768   4.313   4.092
 4821WAT      O14484   2.754   5.165   3.968
 4821WAT     H114485   2.692   5.210   3.911
 4821WAT     H214486   2.840   5.180   3.928
 4822WAT      O14487   2.673   4.763   4.129
 4822WAT     H114488   2.666   4.669   4.113
 4822WAT     H214489   2.750   4.772   4.186
 4823WAT      O14490   1.892   3.823   4.361
 4823WAT     H114491   1.874   3.734   4.389
 4823WAT     H214492   1.852   3.878   4.429
 4824WAT      O14493   2.776   4.044   4.151
 4824WAT     H114494   2.814   3.956   4.140
 4824WAT     H214495   2.767   4.077   4.062
 4825WAT      O14496   2.189   3.881   3.698
 4825WAT     H114497   2.200   3.971   3.728
 4825WAT     H214498   2.098   3.876   3.669
 4826WAT      O14499   3.155   3.793   3.845
 4826WAT     H114500   3.237   3.744   3.849
 4826WAT     H214501   3.158   3.852   3.920
 4827WAT      O14502   1.954   4.073   4.222
 4827WAT     H114503   2.022   4.099   4.284
 4827WAT     H214504   1.923   3.989   4.255
 4828WAT      O14505   2.374   4.178   4.131
 4828WAT     H114506   2.424   4.228   4.195
 4828WAT     H214507   2.427   4.100   4.113
 4829WAT      O14508   3.584   3.995   4.501
 4829WAT     H114509   3.513   4.034   4.449
 4829WAT     H214510   3.610   4.064   4.561
 4830WAT      O14511   2.202   3.642   4.557
 4830WAT     H114512   2.202   3.693   4.477
 4830WAT     H214513   2.119   3.594   4.555
 4831WAT      O14514   2.841   4.653   3.707
 4831WAT     H114515   2.779   4.699   3.651
 4831WAT     H214516   2.892   4.722   3.749
 4832WAT      O14517   2.327   4.606   4.375
 4832WAT     H114518   2.294   4.668   4.439
 4832WAT     H214519   2.345   4.658   4.297
 4833WAT      O14520   3.178   3.987   4.122
 4833WAT     H114521   3.108   4.016   4.180
 4833WAT     H214522   3.214   4.068   4.086
 4834WAT      O14523   2.170   3.813   4.358
 4834WAT     H114524   2.204   3.897   4.329
 4834WAT     H214525   2.076   3.828   4.370
 4835WAT      O14526   2.248   4.803   4.557
 4835WAT     H114527   2.310   4.870   4.529
 4835WAT     H214528   2.162   4.843   4.548
 4836WAT      O14529   1.777   4.722   3.445
 4836WAT     H114530   1.740   4.770   3.372
 4836WAT     H214531   1.803   4.789   3.508
 4837WAT      O14532   3.340   4.949   4.348
 4837WAT     H114533   3.272   5.016   4.347
 4837WAT     H214534   3.394   4.969   4.272
 4838WAT      O14535   3.485   3.932   4.161
 4838WAT     H114536   3.390   3.935   4.174
 4838WAT     H214537   3.518   4.013   4.200
 4839WAT      O14538   2.538   3.562   3.991
 4839WAT     H114539   2.569   3.506   3.919
 4839WAT     H214540   2.445   3.575   3.972
 4840WAT      O14541   3.093   5.133   4.220
 4840WAT     H114542   3.095   5.093   4.133
 4840WAT     H214543   3.038   5.211   4.209
 4841WAT      O14544   3.223   4.806   3.729
 4841WAT     H114545   3.212   4.711   3.741
 4841WAT     H214546   3.223   4.842   3.817
 4842WAT      O14547   3.033   4.624   4.352
 4842WAT     H114548   3.075   4.602   4.269
 4842WAT     H214549   3.106   4.649   4.410
 4843WAT      O14550   2.777   4.368   3.664
 4843WAT     H114551   2.684   4.362   3.687
 4843WAT     H214552   2.792   4.462   3.653
 4844WAT      O14553   2.776   3.995   3.364
 4844WAT     H114554   2.682   4.011   3.372
 4844WAT     H214555   2.808   4.067   3.309
 4845WAT      O14556   3.428   4.464   4.362
 4845WAT     H114557   3.345   4.470   4.314
 4845WAT     H214558   3.487   4.522   4.315
 4846WAT      O14559   3.180   4.524   3.715
 4846WAT     H114560   3.118   4.491   3.650
 4846WAT     H214561   3.178   4.460   3.785
 4847WAT      O14562   3.124   4.142   4.456
 4847WAT     H114563   3.083   4.225   4.482
 4847WAT     H214564   3.051   4.084   4.437
 4848WAT      O14565   2.338   4.421   3.942
 4848WAT     H114566   2.297   4.350   3.893
 4848WAT     H214567   2.346   4.386   4.031
 4849WAT      O14568   2.385   4.789   4.159
 4849WAT     H114569   2.355   4.729   4.091
 4849WAT     H214570   2.480   4.793   4.148
 4850WAT      O14571   2.209   4.098   4.320
 4850WAT     H114572   2.264   4.109   4.243
 4850WAT     H214573   2.260   4.136   4.392
 4851WAT      O14574   3.193   5.147   4.525
 4851WAT     H114575   3.146   5.228   4.506
 4851WAT     H214576   3.125   5.082   4.540
 4852WAT      O14577   2.294   4.763   4.824
 4852WAT     H114578   2.204   4.786   4.849
 4852WAT     H214579   2.296   4.776   4.729
 4853WAT      O14580   2.998   4.448   3.415
 4853WAT     H114581   3.042   4.364   3.401
 4853WAT     H214582   3.069   4.512   3.424
 4854WAT      O14583   2.176   4.450   4.681
 4854WAT     H114584   2.163   4.538   4.718
 4854WAT     H214585   2.088   4.416   4.667
 4855WAT      O14586   2.809   4.942   3.812
 4855WAT     H114587   2.853   5.016   3.771
 4855WAT     H214588   2.803   4.966   3.904
 4856WAT      O14589   2.356   5.045   4.902
 4856WAT     H114590   2.353   5.085   4.816
 4856WAT     H214591   2.340   4.952   4.886
 4857WAT      O14592   2.008   4.310   3.692
 4857WAT     H114593   1.996   4.383   3.631
 4857WAT     H214594   1.977   4.233   3.645
 4858WAT      O14595   3.551   5.123   5.032
 4858WAT     H114596   3.599   5.171   5.100
 4858WAT     H214597   3.613   5.116   4.959
 4859WAT      O14598   1.772   4.627   4.273
 4859WAT     H114599   1.779   4.641   4.179
 4859WAT     H214600   1.833   4.557   4.292
 4860WAT      O14601   1.896   4.797   3.914
 4860WAT     H114602   1.855   4.812   3.829
 4860WAT     H214603   1.985   4.769   3.894
 4861WAT      O14604   3.492   4.842   4.748
 4861WAT     H114605   3.504   4.818   4.656
 4861WAT     H214606   3.496   4.759   4.795
 4862WAT      O14607   2.878   5.212   4.605
 4862WAT     H114608   2.929   5.203   4.685
 4862WAT     H214609   2.794   5.247   4.634
 4863WAT      O14610   3.075   5.241   3.548
 4863WAT     H114611   3.059   5.212   3.638
 4863WAT     H214612   3.059   5.163   3.494
 4864WAT      O14613   2.323   5.219   3.725
 4864WAT     H114614   2.306   5.127   3.704
 4864WAT     H214615   2.238   5.255   3.749
 4865WAT      O14616   3.046   4.992   3.404
 4865WAT     H114617   2.976   4.992   3.338
 4865WAT     H214618   3.120   4.949   3.361
 4866WAT      O14619   3.002   5.154   3.811
 4866WAT     H114620   3.048   5.076   3.843
 4866WAT     H214621   3.036   5.225   3.866
 4867WAT      O14622   3.477   4.047   4.844
 4867WAT     H114623   3.415   4.098   4.792
 4867WAT     H214624   3.445   3.957   4.839
 4868WAT      O14625   1.777   4.732   4.527
 4868WAT     H114626   1.794   4.685   4.445
 4868WAT     H214627   1.824   4.681   4.594
 4869WAT      O14628   2.254   3.645   4.031
 4869WAT     H114629   2.210   3.723   3.998
 4869WAT     H214630   2.310   3.677   4.101
 4870WAT      O14631   2.683   3.931   4.591
 4870WAT     H114632   2.637   3.952   4.672
 4870WAT     H214633   2.643   3.850   4.561
 4871WAT      O14634   3.183   4.053   4.704
 4871WAT     H114635   3.098   4.023   4.736
 4871WAT     H214636   3.167   4.078   4.613
 4872WAT      O14637   2.893   4.203   4.914
 4872WAT     H114638   2.925   4.120   4.880
 4872WAT     H214639   2.971   4.256   4.929
 4873WAT      O14640   2.566   3.607   3.519
 4873WAT     H114641   2.504   3.606   3.591
 4873WAT     H214642   2.557   3.520   3.479
 4874WAT      O14643   2.458   3.699   4.217
 4874WAT     H114644   2.488   3.790   4.209
 4874WAT     H214645   2.513   3.650   4.155
 4875WAT      O14646   2.234   4.157   3.804
 4875WAT     H114647   2.211   4.135   3.894
 4875WAT     H214648   2.155   4.200   3.769
 4876WAT      O14649   2.957   4.158   3.663
 4876WAT     H114650   2.897   4.230   3.645
 4876WAT     H214651   3.011   4.151   3.585
 4877WAT      O14652   2.478   4.247   4.870
 4877WAT     H114653   2.468   4.153   4.855
 4877WAT     H214654   2.562   4.269   4.831
 4878WAT      O14655   2.817   4.021   3.866
 4878WAT     H114656   2.856   4.053   3.785
 4878WAT     H214657   2.853   3.933   3.878
 4879WAT      O14658   1.991   3.888   4.685
 4879WAT     H114659   1.951   3.973   4.706
 4879WAT     H214660   1.922   3.824   4.705
 4880WAT      O14661   2.648   3.896   4.992
 4880WAT     H114662   2.579   3.877   5.056
 4880WAT     H214663   2.722   3.925   5.046
 4881WAT      O14664   1.721   3.680   4.089
 4881WAT     H114665   1.692   3.737   4.160
 4881WAT     H214666   1.795   3.632   4.125
 4882WAT      O14667   1.740   4.074   3.210
 4882WAT     H114668   1.731   4.169   3.224
 4882WAT     H214669   1.704   4.060   3.122
 4883WAT      O14670   2.876   4.280   4.276
 4883WAT     H114671   2.803   4.331   4.311
 4883WAT     H214672   2.836   4.199   4.246
 4884WAT      O14673   2.519   3.948   4.116
 4884WAT     H114674   2.520   3.904   4.032
 4884WAT     H214675   2.609   3.980   4.127
 4885WAT      O14676   2.105   3.936   4.012
 4885WAT     H114677   2.071   3.984   4.088
 4885WAT     H214678   2.028   3.891   3.976
 4886WAT      O14679   2.526   4.048   3.416
 4886WAT     H114680   2.538   4.044   3.510
 4886WAT     H214681   2.487   4.134   3.400
 4887WAT      O14682   2.922   3.826   4.217
 4887WAT     H114683   2.924   3.871   4.302
 4887WAT     H214684   2.897   3.736   4.239
 4888WAT      O14685   2.427   4.279   3.355
 4888WAT     H114686   2.370   4.234   3.293
 4888WAT     H214687   2.498   4.315   3.302
 4889WAT      O14688   3.265   3.567   4.801
 4889WAT     H114689   3.297   3.494   4.854
 4889WAT     H214690   3.268   3.535   4.711
 4890WAT      O14691   1.935   4.669   4.743
 4890WAT     H114692   1.896   4.605   4.803
 4890WAT     H214693   1.966   4.739   4.800
 4891WAT      O14694   2.550   4.354   4.291
 4891WAT     H114695   2.586   4.306   4.366
 4891WAT     H214696   2.531   4.441   4.325
 4892WAT      O14697   1.836   3.828   3.904
 4892WAT     H114698   1.807   3.792   3.988
 4892WAT     H214699   1.830   3.755   3.843
 4893WAT      O14700   2.329   4.258   4.523
 4893WAT     H114701   2.298   4.346   4.545
 4893WAT     H214702   2.424   4.264   4.527
 4894WAT      O14703   2.181   4.679   3.583
 4894WAT     H114704   2.104   4.625   3.567
 4894WAT     H214705   2.254   4.627   3.549
 4895WAT      O14706   3.257   4.578   4.162
 4895WAT     H114707   3.329   4.628   4.123
 4895WAT     H214708   3.237   4.510   4.097
 4896WAT      O14709   2.803   3.718   3.576
 4896WAT     H114710   2.722   3.668   3.569
 4896WAT     H214711   2.784   3.802   3.535
 4897WAT      O14712   2.795   4.585   4.751
 4897WAT     H114713   2.789   4.493   4.725
 4897WAT     H214714   2.732   4.595   4.822
 4898WAT      O14715   3.075   4.155   3.406
 4898WAT     H114716   3.164   4.186   3.388
 4898WAT     H214717   3.072   4.067   3.367
 4899WAT      O14718   2.186   4.645   3.946
 4899WAT     H114719   2.238   4.565   3.941
 4899WAT     H214720   2.141   4.639   4.031
 4900WAT      O14721   2.674   4.772   3.474
 4900WAT     H114722   2.709   4.846   3.424
 4900WAT     H214723   2.592   4.803   3.510
 4901WAT      O14724   1.934   4.342   4.638
 4901WAT     H114725   1.898   4.408   4.696
 4901WAT     H214726   1.905   4.259   4.675
 4902WAT      O14727   2.254   4.388   4.926
 4902WAT     H114728   2.224   4.402   4.836
 4902WAT     H214729   2.331   4.332   4.917
 4903WAT      O14730   2.789   4.867   4.726
 4903WAT     H114731   2.790   4.774   4.704
 4903WAT     H214732   2.718   4.876   4.790
 4904WAT      O14733   3.302   4.286   3.353
 4904WAT     H114734   3.294   4.329   3.268
 4904WAT     H214735   3.374   4.332   3.396
 4905WAT      O14736   3.410   4.532   4.660
 4905WAT     H114737   3.337   4.591   4.641
 4905WAT     H214738   3.462   4.531   4.580
 4906WAT      O14739   3.405   4.971   3.625
 4906WAT     H114740   3.341   4.906   3.653
 4906WAT     H214741   3.366   5.012   3.548
 4907WAT      O14742   2.963   4.704   4.010
 4907WAT     H114743   2.998   4.644   3.944
 4907WAT     H214744   2.874   4.672   4.027
 4908WAT      O14745   2.571   4.780   3.751
 4908WAT     H114746   2.640   4.835   3.789
 4908WAT     H214747   2.493   4.835   3.754
 4909WAT      O14748   1.785   4.342   3.300
 4909WAT     H114749   1.872   4.370   3.328
 4909WAT     H214750   1.736   4.423   3.289
 4910WAT      O14751   2.502   4.481   3.712
 4910WAT     H114752   2.547   4.562   3.735
 4910WAT     H214753   2.467   4.449   3.795
 4911WAT      O14754   2.732   5.032   4.435
 4911WAT     H114755   2.796   5.052   4.503
 4911WAT     H214756   2.768   4.956   4.390
 4912WAT      O14757   2.092   3.515   3.759
 4912WAT     H114758   2.079   3.514   3.854
 4912WAT     H214759   2.009   3.549   3.724
 4913WAT      O14760   2.859   4.832   4.307
 4913WAT     H114761   2.923   4.762   4.318
 4913WAT     H214762   2.912   4.910   4.289
 4914WAT      O14763   3.244   4.860   3.279
 4914WAT     H114764   3.221   4.789   3.338
 4914WAT     H214765   3.205   4.836   3.195
 4915WAT      O14766   3.037   4.912   4.627
 4915WAT     H114767   3.070   4.971   4.695
 4915WAT     H214768   2.945   4.899   4.650
 4916WAT      O14769   1.822   5.263   3.357
 4916WAT     H114770   1.858   5.323   3.291
 4916WAT     H214771   1.808   5.318   3.434
 4917WAT      O14772   1.792   3.691   4.705
 4917WAT     H114773   1.720   3.711   4.766
 4917WAT     H214774   1.834   3.613   4.743
 4918WAT      O14775   3.202   4.652   3.445
 4918WAT     H114776   3.173   4.698   3.524
 4918WAT     H214777   3.282   4.606   3.472
 4919WAT      O14778   1.820   5.090   4.804
 4919WAT     H114779   1.831   4.996   4.790
 4919WAT     H214780   1.755   5.116   4.739
 4920WAT      O14781   2.620   4.917   4.944
 4920WAT     H114782   2.588   4.845   4.999
 4920WAT     H214783   2.552   4.984   4.951
 4921WAT      O14784   2.424   5.001   3.438
 4921WAT     H114785   2.423   5.075   3.377
 4921WAT     H214786   2.332   4.977   3.448
 4922WAT      O14787   1.984   4.524   3.513
 4922WAT     H114788   1.923   4.598   3.514
 4922WAT     H214789   2.031   4.533   3.430
 4923WAT      O14790   2.941   3.940   4.480
 4923WAT     H114791   2.978   3.858   4.513
 4923WAT     H214792   2.855   3.946   4.522
 4924WAT      O14793   3.278   3.836   3.561
 4924WAT     H114794   3.215   3.846   3.490
 4924WAT     H214795   3.228   3.858   3.640
 4925WAT      O14796   2.722   5.008   3.305
 4925WAT     H114797   2.732   4.987   3.212
 4925WAT     H214798   2.632   4.982   3.325
 4926WAT      O14799   2.475   4.064   3.703
 4926WAT     H114800   2.404   4.110   3.747
 4926WAT     H214801   2.503   3.998   3.766
 4927WAT      O14802   2.637   4.205   4.503
 4927WAT     H114803   2.687   4.253   4.569
 4927WAT     H214804   2.651   4.113   4.524
 4928WAT      O14805   2.878   3.736   3.847
 4928WAT     H114806   2.865   3.738   3.752
 4928WAT     H214807   2.973   3.741   3.859
 4929WAT      O14808   2.586   5.260   3.774
 4929WAT     H114809   2.612   5.256   3.682
 4929WAT     H214810   2.492   5.247   3.773
 4930WAT      O14811   2.295   3.894   3.440
 4930WAT     H114812   2.380   3.938   3.434
 4930WAT     H214813   2.258   3.926   3.523
 4931WAT      O14814   3.358   3.827   4.587
 4931WAT     H114815   3.307   3.901   4.621
 4931WAT     H214816   3.439   3.866   4.555
 4932WAT      O14817   3.187   4.352   3.932
 4932WAT     H114818   3.093   4.353   3.949
 4932WAT     H214819   3.218   4.273   3.976
 4933WAT      O14820   2.185   4.520   3.288
 4933WAT     H114821   2.261   4.509   3.344
 4933WAT     H214822   2.193   4.450   3.223
 4934WAT      O14823   2.054   4.263   3.356
 4934WAT     H114824   2.062   4.168   3.367
 4934WAT     H214825   2.143   4.296   3.367
 4935WAT      O14826   3.387   5.069   4.099
 4935WAT     H114827   3.400   5.151   4.146
 4935WAT     H214828   3.474   5.048   4.064
 4936WAT      O14829   2.134   5.278   4.066
 4936WAT     H114830   2.208   5.223   4.093
 4936WAT     H214831   2.173   5.364   4.052
 4937WAT      O14832   1.823   4.885   3.654
 4937WAT     H114833   1.730   4.909   3.653
 4937WAT     H214834   1.869   4.967   3.642
 4938WAT      O14835   2.035   5.196   4.985
 4938WAT     H114836   2.115   5.228   5.027
 4938WAT     H214837   1.984   5.160   5.057
 4939WAT      O14838   2.445   5.195   3.249
 4939WAT     H114839   2.525   5.224   3.203
 4939WAT     H214840   2.393   5.152   3.181
 4940WAT      O14841   2.919   4.807   4.980
 4940WAT     H114842   2.858   4.809   4.906
 4940WAT     H214843   2.888   4.734   5.034
 4941WAT      O14844   3.062   5.180   4.841
 4941WAT     H114845   3.157   5.172   4.836
 4941WAT     H214846   3.047   5.246   4.908
 4942WAT      O14847   3.351   5.118   3.391
 4942WAT     H114848   3.322   5.077   3.310
 4942WAT     H214849   3.331   5.211   3.379
 4943WAT      O14850   1.807   4.445   4.880
 4943WAT     H114851   1.857   4.387   4.937
 4943WAT     H214852   1.733   4.474   4.933
 4944WAT      O14853   2.497   4.717   3.235
 4944WAT     H114854   2.487   4.656   3.308
 4944WAT     H214855   2.480   4.665   3.157
 4945WAT      O14856   2.512   4.586   4.833
 4945WAT     H114857   2.436   4.643   4.825
 4945WAT     H214858   2.531   4.557   4.744
 4946WAT      O14859   2.821   4.623   3.296
 4946WAT     H114860   2.766   4.668   3.360
 4946WAT     H214861   2.883   4.573   3.348
 4947WAT      O14862   3.227   4.759   4.889
 4947WAT     H114863   3.301   4.793   4.838
 4947WAT     H214864   3.150   4.776   4.833
 4948WAT      O14865   2.010   4.259   4.969
 4948WAT     H114866   2.014   4.230   5.060
 4948WAT     H214867   2.096   4.299   4.953
 4949WAT      O14868   2.388   4.519   3.485
 4949WAT     H114869   2.430   4.503   3.569
 4949WAT     H214870   2.400   4.438   3.436
 4950WAT      O14871   2.204   4.117   4.766
 4950WAT     H114872   2.151   4.068   4.703
 4950WAT     H214873   2.271   4.160   4.712
 4951WAT      O14874   2.639   4.422   3.210
 4951WAT     H114875   2.691   4.350   3.173
 4951WAT     H214876   2.704   4.486   3.240
 4952WAT      O14877   3.094   4.564   4.742
 4952WAT     H114878   3.135   4.579   4.827
 4952WAT     H214879   3.001   4.577   4.759
 4953WAT      O14880   3.141   4.298   4.943
 4953WAT     H114881   3.199   4.222   4.934
 4953WAT     H214882   3.159   4.351   4.865
 4954WAT      O14883   2.253   3.814   4.774
 4954WAT     H114884   2.244   3.752   4.701
 4954WAT     H214885   2.195   3.887   4.751
 4955WAT      O14886   2.530   3.670   4.477
 4955WAT     H114887   2.485   3.672   4.393
 4955WAT     H214888   2.466   3.630   4.537
 4956WAT      O14889   2.570   4.559   4.539
 4956WAT     H114890   2.612   4.644   4.522
 4956WAT     H214891   2.478   4.573   4.516
 4957WAT      O14892   2.804   4.332   4.678
 4957WAT     H114893   2.816   4.273   4.752
 4957WAT     H214894   2.890   4.336   4.636
 4958WAT      O14895   3.038   4.388   4.535
 4958WAT     H114896   2.985   4.440   4.475
 4958WAT     H214897   3.072   4.451   4.598
 4959WAT      O14898   2.278   4.127   3.180
 4959WAT     H114899   2.257   4.040   3.216
 4959WAT     H214900   2.260   4.118   3.086
 4960WAT      O14901   2.355   5.190   4.651
 4960WAT     H114902   2.301   5.262   4.619
 4960WAT     H214903   2.381   5.142   4.572
 4961WAT      O14904   2.481   3.987   4.803
 4961WAT     H114905   2.540   3.956   4.872
 4961WAT     H214906   2.399   3.939   4.819
 4962WAT      O14907   2.962   3.948   4.827
 4962WAT     H114908   2.894   3.882   4.820
 4962WAT     H214909   3.035   3.904   4.871
 4963WAT      O14910   3.025   3.608   3.433
 4963WAT     H114911   3.053   3.523   3.468
 4963WAT     H214912   2.948   3.631   3.484
 4964WAT      O14913   2.157   3.837   3.179
 4964WAT     H114914   2.188   3.837   3.088
 4964WAT     H214915   2.231   3.802   3.228
 4965WAT      O14916   2.641   5.313   4.677
 4965WAT     H114917   2.633   5.404   4.707
 4965WAT     H214918   2.551   5.281   4.674
 4966WAT      O14919   2.479   3.731   3.277
 4966WAT     H114920   2.444   3.663   3.219
 4966WAT     H214921   2.499   3.685   3.359
 4967WAT      O14922   2.696   5.230   3.439
 4967WAT     H114923   2.785   5.264   3.441
 4967WAT     H214924   2.699   5.158   3.376
 4968WAT      O14925   2.060   4.767   3.262
 4968WAT     H114926   2.103   4.821   3.327
 4968WAT     H214927   2.108   4.685   3.263
 4969WAT      O14928   1.781   5.046   4.007
 4969WAT     H114929   1.814   4.959   3.984
 4969WAT     H214930   1.824   5.067   4.090
 4970WAT      O14931   2.241   4.879   3.773
 4970WAT     H114932   2.211   4.867   3.863
 4970WAT     H214933   2.230   4.793   3.732
 4971WAT      O14934   1.830   5.133   4.281
 4971WAT     H114935   1.786   5.151   4.364
 4971WAT     H214936   1.887   5.208   4.267
 4972WAT      O14937   3.394   5.083   4.710
 4972WAT     H114938   3.334   5.089   4.635
 4972WAT     H214939   3.407   4.989   4.723
 4973WAT      O14940   3.518   4.857   3.243
 4973WAT     H114941   3.435   4.864   3.290
 4973WAT     H214942   3.535   4.946   3.213
 4974WAT      O14943   3.463   4.532   3.494
 4974WAT     H114944   3.539   4.589   3.504
 4974WAT     H214945   3.465   4.475   3.571
 4975WAT      O14946   1.813   4.384   3.917
 4975WAT     H114947   1.748   4.357   3.852
 4975WAT     H214948   1.897   4.373   3.872
 4976WAT      O14949   3.564   4.617   3.978
 4976WAT     H114950   3.601   4.539   3.937
 4976WAT     H214951   3.628   4.686   3.960
 4977WAT      O14952   3.262   4.755   4.519
 4977WAT     H114953   3.181   4.798   4.546
 4977WAT     H214954   3.303   4.817   4.458
 4978WAT      O14955   3.468   4.561   3.209
 4978WAT     H114956   3.496   4.652   3.197
 4978WAT     H214957   3.450   4.555   3.303
 4979WAT      O14958   3.458   4.355   3.709
 4979WAT     H114959   3.421   4.278   3.665
 4979WAT     H214960   3.385   4.393   3.757
 4980WAT      O14961   1.917   4.422   4.371
 4980WAT     H114962   1.954   4.414   4.459
 4980WAT     H214963   1.860   4.346   4.361
 4981WAT      O14964   3.397   4.269   4.672
 4981WAT     H114965   3.374   4.246   4.582
 4981WAT     H214966   3.423   4.361   4.668
 4982WAT      O14967   1.872   4.114   4.761
 4982WAT     H114968   1.783   4.110   4.795
 4982WAT     H214969   1.926   4.133   4.838
 4983WAT      O14970   3.241   3.792   4.950
 4983WAT     H114971   3.329   3.793   4.988
 4983WAT     H214972   3.242   3.718   4.889
 4984WAT      O14973   1.735   4.105   3.511
 4984WAT     H114974   1.644   4.131   3.494
 4984WAT     H214975   1.783   4.132   3.433
 4985WAT      O14976   3.386   4.177   4.039
 4985WAT     H114977   3.438   4.128   3.976
 4985WAT     H214978   3.444   4.191   4.113
 4986WAT      O14979   3.404   4.186   4.391
 4986WAT     H114980   3.309   4.182   4.402
 4986WAT     H214981   3.422   4.277   4.367
 4987WAT      O14982   1.989   4.011   3.302
 4987WAT     H114983   2.060   3.968   3.253
 4987WAT     H214984   1.917   4.017   3.239
 4988WAT      O14985   1.954   3.616   3.206
 4988WAT     H114986   2.026   3.670   3.238
 4988WAT     H214987   1.981   3.589   3.118
 4989WAT      O14988   3.335   4.103   3.633
 4989WAT     H114989   3.384   4.080   3.711
 4989WAT     H214990   3.315   4.019   3.591
 4990WAT      O14991   1.923   3.541   4.196
 4990WAT     H114992   1.987   3.486   4.152
 4990WAT     H214993   1.965   3.566   4.278
 4991WAT      O14994   3.477   3.966   3.886
 4991WAT     H114995   3.466   3.951   3.980
 4991WAT     H214996   3.554   3.914   3.862
 4992WAT      O14997   3.312   3.560   4.532
 4992WAT     H114998   3.376   3.622   4.568
 4992WAT     H214999   3.327   3.564   4.437
 4993WAT      O15000   3.268   5.231   3.872
 4993WAT     H115001   3.328   5.198   3.804
 4993WAT     H215002   3.294   5.183   3.951
 4994WAT      O15003   1.898   3.557   4.470
 4994WAT     H115004   1.863   3.602   4.547
 4994WAT     H215005   1.865   3.467   4.479
 4995WAT      O15006   2.059   4.874   4.887
 4995WAT     H115007   2.054   4.837   4.975
 4995WAT     H215008   2.072   4.968   4.901
 4996WAT      O15009   2.429   5.029   4.447
 4996WAT     H115010   2.405   5.056   4.358
 4996WAT     H215011   2.523   5.046   4.453
 4997WAT      O15012   2.649   3.676   4.823
 4997WAT     H115013   2.643   3.735   4.898
 4997WAT     H215014   2.743   3.665   4.808
 4998WAT      O15015   2.913   3.641   4.787
 4998WAT     H115016   2.974   3.673   4.720
 4998WAT     H215017   2.967   3.593   4.849
 4999WAT      O15018   3.555   5.231   4.527
 4999WAT     H115019   3.505   5.271   4.455
 4999WAT     H215020   3.494   5.169   4.567
 5000WAT      O15021   1.965   3.509   4.798
 5000WAT     H115022   2.020   3.491   4.722
 5000WAT     H215023   1.972   3.430   4.852
 5001WAT      O15024   2.042   5.168   4.599
 5001WAT     H115025   1.983   5.155   4.673
 5001WAT     H215026   2.042   5.085   4.552
 5002WAT      O15027   2.987   3.498   4.419
 5002WAT     H115028   2.900   3.531   4.399
 5002WAT     H215029   2.976   3.450   4.502
 5003WAT      O15030   3.078   3.718   4.558
 5003WAT     H115031   3.045   3.637   4.520
 5003WAT     H215032   3.173   3.714   4.545
 5004WAT      O15033   3.323   5.296   4.255
 5004WAT     H115034   3.277   5.371   4.218
 5004WAT     H215035   3.260   5.224   4.249
 5005WAT      O15036   2.006   4.905   4.494
 5005WAT     H115037   1.933   4.843   4.487
 5005WAT     H215038   2.012   4.944   4.407
 5006WAT      O15039   2.366   5.126   4.173
 5006WAT     H115040   2.418   5.065   4.120
 5006WAT     H215041   2.431   5.177   4.222
 5007WAT      O15042   2.640   5.216   4.255
 5007WAT     H115043   2.669   5.190   4.168
 5007WAT     H215044   2.691   5.160   4.314
 5008WAT      O15045   2.762   3.589   4.313
 5008WAT     H115046   2.683   3.637   4.341
 5008WAT     H215047   2.732   3.499   4.302
 5009WAT      O15048   3.217   3.660   4.118
 5009WAT     H115049   3.261   3.654   4.033
 5009WAT     H215050   3.190   3.751   4.125
 5010WAT      O15051   3.403   3.623   3.919
 5010WAT     H115052   3.397   3.528   3.904
 5010WAT     H215053   3.481   3.634   3.973
 5011WAT      O15054   1.834   5.237   3.815
 5011WAT     H115055   1.817   5.173   3.885
 5011WAT     H215056   1.747   5.257   3.780
 5012WAT      O15057   1.896   3.620   3.565
 5012WAT     H115058   1.972   3.631   3.508
 5012WAT     H215059   1.850   3.704   3.561
 5013WAT      O15060   2.550   3.831   3.864
 5013WAT     H115061   2.469   3.794   3.830
 5013WAT     H215062   2.601   3.756   3.895
 5014WAT      O15063   3.001   3.498   3.988
 5014WAT     H115064   3.061   3.555   4.036
 5014WAT     H215065   2.926   3.554   3.966
 5015WAT      O15066   1.995   5.106   3.559
 5015WAT     H115067   1.942   5.144   3.489
 5015WAT     H215068   1.987   5.169   3.632
 5016WAT      O15069   2.133   3.673   3.419
 5016WAT     H115070   2.186   3.594   3.406
 5016WAT     H215071   2.197   3.740   3.443
 5017WAT      O15072   2.353   3.646   3.725
 5017WAT     H115073   2.290   3.576   3.741
 5017WAT     H215074   2.299   3.722   3.703
 5018WAT      O15075   2.647   5.308   4.992
 5018WAT     H115076   2.739   5.284   4.996
 5018WAT     H215077   2.645   5.390   4.944
 5019WAT      O15078   3.470   5.262   3.692
 5019WAT     H115079   3.488   5.193   3.627
 5019WAT     H215080   3.400   5.314   3.652
 5020WAT      O15081   2.365   3.574   4.968
 5020WAT     H115082   2.337   3.624   4.892
 5020WAT     H215083   2.404   3.494   4.932
 5021WAT      O15084   2.254   5.301   3.447
 5021WAT     H115085   2.328   5.272   3.392
 5021WAT     H215086   2.280   5.277   3.536
 5022WAT      O15087   2.171   4.913   3.447
 5022WAT     H115088   2.108   4.959   3.502
 5022WAT     H215089   2.182   4.828   3.491
 5023WAT      O15090   3.026   3.516   5.026
 5023WAT     H115091   3.014   3.548   5.116
 5023WAT     H215092   3.107   3.556   4.996
 5024WAT      O15093   3.303   5.230   4.974
 5024WAT     H115094   3.383   5.181   4.954
 5024WAT     H215095   3.333   5.298   5.035
 5025WAT      O15096   2.916   4.318   2.062
 5025WAT     H115097   2.908   4.226   2.035
 5025WAT     H215098   2.875   4.367   1.992
 5026WAT      O15099   2.729   4.495   2.251
 5026WAT     H115100   2.652   4.447   2.280
 5026WAT     H215101   2.794   4.427   2.233
 5027WAT      O15102   2.131   4.527   2.338
 5027WAT     H115103   2.048   4.501   2.378
 5027WAT     H215104   2.192   4.534   2.412
 5028WAT      O15105   3.131   4.936   2.129
 5028WAT     H115106   3.085   4.859   2.161
 5028WAT     H215107   3.213   4.939   2.179
 5029WAT      O15108   2.129   4.930   2.358
 5029WAT     H115109   2.159   4.841   2.340
 5029WAT     H215110   2.203   4.986   2.335
 5030WAT      O15111   1.972   4.023   1.717
 5030WAT     H115112   1.883   4.057   1.707
 5030WAT     H215113   2.000   4.003   1.628
 5031WAT      O15114   1.768   4.283   2.305
 5031WAT     H115115   1.825   4.206   2.305
 5031WAT     H215116   1.768   4.313   2.214
 5032WAT      O15117   2.754   5.165   2.091
 5032WAT     H115118   2.692   5.210   2.034
 5032WAT     H215119   2.840   5.180   2.050
 5033WAT      O15120   2.673   4.763   2.251
 5033WAT     H115121   2.666   4.669   2.235
 5033WAT     H215122   2.750   4.772   2.308
 5034WAT      O15123   1.892   3.823   2.484
 5034WAT     H115124   1.874   3.734   2.512
 5034WAT     H215125   1.852   3.878   2.551
 5035WAT      O15126   2.776   4.044   2.274
 5035WAT     H115127   2.814   3.956   2.263
 5035WAT     H215128   2.767   4.077   2.185
 5036WAT      O15129   2.189   3.881   1.820
 5036WAT     H115130   2.200   3.971   1.851
 5036WAT     H215131   2.098   3.876   1.791
 5037WAT      O15132   3.155   3.793   1.967
 5037WAT     H115133   3.237   3.744   1.971
 5037WAT     H215134   3.158   3.852   2.043
 5038WAT      O15135   1.954   4.073   2.345
 5038WAT     H115136   2.022   4.099   2.407
 5038WAT     H215137   1.923   3.989   2.378
 5039WAT      O15138   2.374   4.178   2.253
 5039WAT     H115139   2.424   4.228   2.317
 5039WAT     H215140   2.427   4.100   2.236
 5040WAT      O15141   3.584   3.995   2.624
 5040WAT     H115142   3.513   4.034   2.572
 5040WAT     H215143   3.610   4.064   2.684
 5041WAT      O15144   2.202   3.642   2.680
 5041WAT     H115145   2.202   3.693   2.599
 5041WAT     H215146   2.119   3.594   2.678
 5042WAT      O15147   2.841   4.653   1.830
 5042WAT     H115148   2.779   4.699   1.774
 5042WAT     H215149   2.892   4.722   1.872
 5043WAT      O15150   2.327   4.606   2.498
 5043WAT     H115151   2.294   4.668   2.562
 5043WAT     H215152   2.345   4.658   2.420
 5044WAT      O15153   3.178   3.987   2.245
 5044WAT     H115154   3.108   4.016   2.303
 5044WAT     H215155   3.214   4.068   2.208
 5045WAT      O15156   2.170   3.813   2.481
 5045WAT     H115157   2.204   3.897   2.451
 5045WAT     H215158   2.076   3.828   2.492
 5046WAT      O15159   2.248   4.803   2.679
 5046WAT     H115160   2.310   4.870   2.651
 5046WAT     H215161   2.162   4.843   2.670
 5047WAT      O15162   1.777   4.722   1.567
 5047WAT     H115163   1.740   4.770   1.494
 5047WAT     H215164   1.803   4.789   1.630
 5048WAT      O15165   3.340   4.949   2.471
 5048WAT     H115166   3.272   5.016   2.470
 5048WAT     H215167   3.394   4.969   2.394
 5049WAT      O15168   3.485   3.932   2.284
 5049WAT     H115169   3.390   3.935   2.297
 5049WAT     H215170   3.518   4.013   2.322
 5050WAT      O15171   2.538   3.562   2.113
 5050WAT     H115172   2.569   3.506   2.042
 5050WAT     H215173   2.445   3.575   2.095
 5051WAT      O15174   3.093   5.133   2.342
 5051WAT     H115175   3.095   5.093   2.255
 5051WAT     H215176   3.038   5.211   2.332
 5052WAT      O15177   3.223   4.806   1.851
 5052WAT     H115178   3.212   4.711   1.864
 5052WAT     H215179   3.223   4.842   1.940
 5053WAT      O15180   3.033   4.624   2.475
 5053WAT     H115181   3.075   4.602   2.392
 5053WAT     H215182   3.106   4.649   2.532
 5054WAT      O15183   2.777   4.368   1.787
 5054WAT     H115184   2.684   4.362   1.810
 5054WAT     H215185   2.792   4.462   1.775
 5055WAT      O15186   2.776   3.995   1.486
 5055WAT     H115187   2.682   4.011   1.495
 5055WAT     H215188   2.808   4.067   1.432
 5056WAT      O15189   3.428   4.464   2.484
 5056WAT     H115190   3.345   4.470   2.437
 5056WAT     H215191   3.487   4.522   2.437
 5057WAT      O15192   3.180   4.524   1.837
 5057WAT     H115193   3.118   4.491   1.772
 5057WAT     H215194   3.178   4.460   1.908
 5058WAT      O15195   3.124   4.142   2.579
 5058WAT     H115196   3.083   4.225   2.604
 5058WAT     H215197   3.051   4.084   2.560
 5059WAT      O15198   2.338   4.421   2.065
 5059WAT     H115199   2.297   4.350   2.015
 5059WAT     H215200   2.346   4.386   2.154
 5060WAT      O15201   2.385   4.789   2.281
 5060WAT     H115202   2.355   4.729   2.213
 5060WAT     H215203   2.480   4.793   2.270
 5061WAT      O15204   2.209   4.098   2.443
 5061WAT     H115205   2.264   4.109   2.365
 5061WAT     H215206   2.260   4.136   2.514
 5062WAT      O15207   3.193   5.147   2.648
 5062WAT     H115208   3.146   5.228   2.628
 5062WAT     H215209   3.125   5.082   2.663
 5063WAT      O15210   2.294   4.763   2.946
 5063WAT     H115211   2.204   4.786   2.971
 5063WAT     H215212   2.296   4.776   2.852
 5064WAT      O15213   2.998   4.448   1.538
 5064WAT     H115214   3.042   4.364   1.523
 5064WAT     H215215   3.069   4.512   1.546
 5065WAT      O15216   2.176   4.450   2.804
 5065WAT     H115217   2.163   4.538   2.841
 5065WAT     H215218   2.088   4.416   2.789
 5066WAT      O15219   2.809   4.942   1.935
 5066WAT     H115220   2.853   5.016   1.893
 5066WAT     H215221   2.803   4.966   2.027
 5067WAT      O15222   2.356   5.045   3.025
 5067WAT     H115223   2.353   5.085   2.938
 5067WAT     H215224   2.340   4.952   3.009
 5068WAT      O15225   3.356   3.574   1.369
 5068WAT     H115226   3.325   3.583   1.459
 5068WAT     H215227   3.432   3.631   1.364
 5069WAT      O15228   2.008   4.310   1.815
 5069WAT     H115229   1.996   4.383   1.754
 5069WAT     H215230   1.977   4.233   1.767
 5070WAT      O15231   3.551   5.123   3.154
 5070WAT     H115232   3.599   5.171   3.222
 5070WAT     H215233   3.613   5.116   3.082
 5071WAT      O15234   1.772   4.627   2.396
 5071WAT     H115235   1.779   4.641   2.301
 5071WAT     H215236   1.833   4.557   2.415
 5072WAT      O15237   1.896   4.797   2.037
 5072WAT     H115238   1.855   4.812   1.951
 5072WAT     H215239   1.985   4.769   2.016
 5073WAT      O15240   3.492   4.842   2.870
 5073WAT     H115241   3.504   4.818   2.779
 5073WAT     H215242   3.496   4.759   2.918
 5074WAT      O15243   2.878   5.212   2.727
 5074WAT     H115244   2.929   5.203   2.808
 5074WAT     H215245   2.794   5.247   2.757
 5075WAT      O15246   3.075   5.241   1.670
 5075WAT     H115247   3.059   5.212   1.760
 5075WAT     H215248   3.059   5.163   1.617
 5076WAT      O15249   2.323   5.219   1.848
 5076WAT     H115250   2.306   5.127   1.827
 5076WAT     H215251   2.238   5.255   1.872
 5077WAT      O15252   3.046   4.992   1.526
 5077WAT     H115253   2.976   4.992   1.460
 5077WAT     H215254   3.120   4.949   1.483
 5078WAT      O15255   3.002   5.154   1.934
 5078WAT     H115256   3.048   5.076   1.965
 5078WAT     H215257   3.036   5.225   1.988
 5079WAT      O15258   1.777   4.732   2.650
 5079WAT     H115259   1.794   4.685   2.568
 5079WAT     H215260   1.824   4.681   2.716
 5080WAT      O15261   2.254   3.645   2.153
 5080WAT     H115262   2.210   3.723   2.120
 5080WAT     H215263   2.310   3.677   2.224
 5081WAT      O15264   2.683   3.931   2.714
 5081WAT     H115265   2.637   3.952   2.795
 5081WAT     H215266   2.643   3.850   2.683
 5082WAT      O15267   3.183   4.053   2.827
 5082WAT     H115268   3.098   4.023   2.859
 5082WAT     H215269   3.167   4.078   2.735
 5083WAT      O15270   2.893   4.203   3.037
 5083WAT     H115271   2.925   4.120   3.003
 5083WAT     H215272   2.971   4.256   3.051
 5084WAT      O15273   2.566   3.607   1.641
 5084WAT     H115274   2.504   3.606   1.714
 5084WAT     H215275   2.557   3.520   1.602
 5085WAT      O15276   2.458   3.699   2.339
 5085WAT     H115277   2.488   3.790   2.331
 5085WAT     H215278   2.513   3.650   2.278
 5086WAT      O15279   2.234   4.157   1.926
 5086WAT     H115280   2.211   4.135   2.017
 5086WAT     H215281   2.155   4.200   1.892
 5087WAT      O15282   2.957   4.158   1.786
 5087WAT     H115283   2.897   4.230   1.768
 5087WAT     H215284   3.011   4.151   1.708
 5088WAT      O15285   2.478   4.247   2.993
 5088WAT     H115286   2.468   4.153   2.978
 5088WAT     H215287   2.562   4.269   2.953
 5089WAT      O15288   2.817   4.021   1.989
 5089WAT     H115289   2.856   4.053   1.908
 5089WAT     H215290   2.853   3.933   2.000
 5090WAT      O15291   1.991   3.888   2.808
 5090WAT     H115292   1.951   3.973   2.829
 5090WAT     H215293   1.922   3.824   2.827
 5091WAT      O15294   2.648   3.896   3.115
 5091WAT     H115295   2.579   3.877   3.178
 5091WAT     H215296   2.722   3.925   3.168
 5092WAT      O15297   1.721   3.680   2.211
 5092WAT     H115298   1.692   3.737   2.283
 5092WAT     H215299   1.795   3.632   2.248
 5093WAT      O15300   1.740   4.074   1.332
 5093WAT     H115301   1.731   4.169   1.346
 5093WAT     H215302   1.704   4.060   1.244
 5094WAT      O15303   2.876   4.280   2.399
 5094WAT     H115304   2.803   4.331   2.433
 5094WAT     H215305   2.836   4.199   2.368
 5095WAT      O15306   2.519   3.948   2.239
 5095WAT     H115307   2.520   3.904   2.154
 5095WAT     H215308   2.609   3.980   2.250
 5096WAT      O15309   2.105   3.936   2.135
 5096WAT     H115310   2.071   3.984   2.211
 5096WAT     H215311   2.028   3.891   2.099
 5097WAT      O15312   2.526   4.048   1.538
 5097WAT     H115313   2.538   4.044   1.633
 5097WAT     H215314   2.487   4.134   1.523
 5098WAT      O15315   2.922   3.826   2.340
 5098WAT     H115316   2.924   3.871   2.424
 5098WAT     H215317   2.897   3.736   2.361
 5099WAT      O15318   2.427   4.279   1.478
 5099WAT     H115319   2.370   4.234   1.415
 5099WAT     H215320   2.498   4.315   1.425
 5100WAT      O15321   1.935   4.669   2.866
 5100WAT     H115322   1.896   4.605   2.925
 5100WAT     H215323   1.966   4.739   2.923
 5101WAT      O15324   2.550   4.354   2.414
 5101WAT     H115325   2.586   4.306   2.488
 5101WAT     H215326   2.531   4.441   2.448
 5102WAT      O15327   1.836   3.828   2.027
 5102WAT     H115328   1.807   3.792   2.110
 5102WAT     H215329   1.830   3.755   1.965
 5103WAT      O15330   2.329   4.258   2.646
 5103WAT     H115331   2.298   4.346   2.668
 5103WAT     H215332   2.424   4.264   2.649
 5104WAT      O15333   2.181   4.679   1.705
 5104WAT     H115334   2.104   4.625   1.689
 5104WAT     H215335   2.254   4.627   1.671
 5105WAT      O15336   3.257   4.578   2.284
 5105WAT     H115337   3.329   4.628   2.245
 5105WAT     H215338   3.237   4.510   2.220
 5106WAT      O15339   2.803   3.718   1.699
 5106WAT     H115340   2.722   3.668   1.691
 5106WAT     H215341   2.784   3.802   1.657
 5107WAT      O15342   2.795   4.585   2.873
 5107WAT     H115343   2.789   4.493   2.848
 5107WAT     H215344   2.732   4.595   2.945
 5108WAT      O15345   3.075   4.155   1.528
 5108WAT     H115346   3.164   4.186   1.511
 5108WAT     H215347   3.072   4.067   1.489
 5109WAT      O15348   2.186   4.645   2.069
 5109WAT     H115349   2.238   4.565   2.064
 5109WAT     H215350   2.141   4.639   2.153
 5110WAT      O15351   2.674   4.772   1.596
 5110WAT     H115352   2.709   4.846   1.547
 5110WAT     H215353   2.592   4.803   1.633
 5111WAT      O15354   1.934   4.342   2.760
 5111WAT     H115355   1.898   4.408   2.819
 5111WAT     H215356   1.905   4.259   2.797
 5112WAT      O15357   2.254   4.388   3.049
 5112WAT     H115358   2.224   4.402   2.959
 5112WAT     H215359   2.331   4.332   3.039
 5113WAT      O15360   2.789   4.867   2.848
 5113WAT     H115361   2.790   4.774   2.826
 5113WAT     H215362   2.718   4.876   2.912
 5114WAT      O15363   3.302   4.286   1.475
 5114WAT     H115364   3.294   4.329   1.390
 5114WAT     H215365   3.374   4.332   1.518
 5115WAT      O15366   3.410   4.532   2.783
 5115WAT     H115367   3.337   4.591   2.763
 5115WAT     H215368   3.462   4.531   2.703
 5116WAT      O15369   3.405   4.971   1.748
 5116WAT     H115370   3.341   4.906   1.775
 5116WAT     H215371   3.366   5.012   1.670
 5117WAT      O15372   2.963   4.704   2.133
 5117WAT     H115373   2.998   4.644   2.067
 5117WAT     H215374   2.874   4.672   2.150
 5118WAT      O15375   2.571   4.780   1.873
 5118WAT     H115376   2.640   4.835   1.912
 5118WAT     H215377   2.493   4.835   1.877
 5119WAT      O15378   1.785   4.342   1.423
 5119WAT     H115379   1.872   4.370   1.451
 5119WAT     H215380   1.736   4.423   1.411
 5120WAT      O15381   2.502   4.481   1.835
 5120WAT     H115382   2.547   4.562   1.857
 5120WAT     H215383   2.467   4.449   1.918
 5121WAT      O15384   2.732   5.032   2.558
 5121WAT     H115385   2.796   5.052   2.625
 5121WAT     H215386   2.768   4.956   2.512
 5122WAT      O15387   2.092   3.515   1.882
 5122WAT     H115388   2.079   3.514   1.977
 5122WAT     H215389   2.009   3.549   1.847
 5123WAT      O15390   2.859   4.832   2.429
 5123WAT     H115391   2.923   4.762   2.441
 5123WAT     H215392   2.912   4.910   2.411
 5124WAT      O15393   3.244   4.860   1.402
 5124WAT     H115394   3.221   4.789   1.461
 5124WAT     H215395   3.205   4.836   1.318
 5125WAT      O15396   3.037   4.912   2.750
 5125WAT     H115397   3.070   4.971   2.818
 5125WAT     H215398   2.945   4.899   2.773
 5126WAT      O15399   1.822   5.263   1.479
 5126WAT     H115400   1.858   5.323   1.414
 5126WAT     H215401   1.808   5.318   1.557
 5127WAT      O15402   1.792   3.691   2.828
 5127WAT     H115403   1.720   3.711   2.888
 5127WAT     H215404   1.834   3.613   2.865
 5128WAT      O15405   3.202   4.652   1.568
 5128WAT     H115406   3.173   4.698   1.647
 5128WAT     H215407   3.282   4.606   1.595
 5129WAT      O15408   1.820   5.090   2.927
 5129WAT     H115409   1.831   4.996   2.913
 5129WAT     H215410   1.755   5.116   2.862
 5130WAT      O15411   2.620   4.917   3.067
 5130WAT     H115412   2.588   4.845   3.121
 5130WAT     H215413   2.552   4.984   3.074
 5131WAT      O15414   2.424   5.001   1.561
 5131WAT     H115415   2.423   5.075   1.499
 5131WAT     H215416   2.332   4.977   1.570
 5132WAT      O15417   1.984   4.524   1.635
 5132WAT     H115418   1.923   4.598   1.636
 5132WAT     H215419   2.031   4.533   1.553
 5133WAT      O15420   2.941   3.940   2.603
 5133WAT     H115421   2.978   3.858   2.636
 5133WAT     H215422   2.855   3.946   2.645
 5134WAT      O15423   3.278   3.836   1.684
 5134WAT     H115424   3.215   3.846   1.612
 5134WAT     H215425   3.228   3.858   1.763
 5135WAT      O15426   2.722   5.008   1.427
 5135WAT     H115427   2.732   4.987   1.334
 5135WAT     H215428   2.632   4.982   1.448
 5136WAT      O15429   2.475   4.064   1.825
 5136WAT     H115430   2.404   4.110   1.870
 5136WAT     H215431   2.503   3.998   1.889
 5137WAT      O15432   2.637   4.205   2.625
 5137WAT     H115433   2.687   4.253   2.692
 5137WAT     H215434   2.651   4.113   2.646
 5138WAT      O15435   2.878   3.736   1.969
 5138WAT     H115436   2.865   3.738   1.874
 5138WAT     H215437   2.973   3.741   1.981
 5139WAT      O15438   2.586   5.260   1.897
 5139WAT     H115439   2.612   5.256   1.804
 5139WAT     H215440   2.492   5.247   1.896
 5140WAT      O15441   2.295   3.894   1.563
 5140WAT     H115442   2.380   3.938   1.556
 5140WAT     H215443   2.258   3.926   1.646
 5141WAT      O15444   3.358   3.827   2.710
 5141WAT     H115445   3.307   3.901   2.744
 5141WAT     H215446   3.439   3.866   2.678
 5142WAT      O15447   3.187   4.352   2.054
 5142WAT     H115448   3.093   4.353   2.072
 5142WAT     H215449   3.218   4.273   2.099
 5143WAT      O15450   2.185   4.520   1.410
 5143WAT     H115451   2.261   4.509   1.467
 5143WAT     H215452   2.193   4.450   1.345
 5144WAT      O15453   2.054   4.263   1.479
 5144WAT     H115454   2.062   4.168   1.490
 5144WAT     H215455   2.143   4.296   1.489
 5145WAT      O15456   3.387   5.069   2.222
 5145WAT     H115457   3.400   5.151   2.269
 5145WAT     H215458   3.474   5.048   2.187
 5146WAT      O15459   2.134   5.278   2.189
 5146WAT     H115460   2.208   5.223   2.216
 5146WAT     H215461   2.173   5.364   2.175
 5147WAT      O15462   1.823   4.885   1.776
 5147WAT     H115463   1.730   4.909   1.775
 5147WAT     H215464   1.869   4.967   1.764
 5148WAT      O15465   2.035   5.196   3.108
 5148WAT     H115466   2.115   5.228   3.149
 5148WAT     H215467   1.984   5.160   3.180
 5149WAT      O15468   2.445   5.195   1.371
 5149WAT     H115469   2.525   5.224   1.326
 5149WAT     H215470   2.393   5.152   1.303
 5150WAT      O15471   2.919   4.807   3.103
 5150WAT     H115472   2.858   4.809   3.029
 5150WAT     H215473   2.888   4.734   3.156
 5151WAT      O15474   3.062   5.180   2.964
 5151WAT     H115475   3.157   5.172   2.959
 5151WAT     H215476   3.047   5.246   3.031
 5152WAT      O15477   3.351   5.118   1.514
 5152WAT     H115478   3.322   5.077   1.432
 5152WAT     H215479   3.331   5.211   1.502
 5153WAT      O15480   1.807   4.445   3.002
 5153WAT     H115481   1.857   4.387   3.059
 5153WAT     H215482   1.733   4.474   3.056
 5154WAT      O15483   2.497   4.717   1.358
 5154WAT     H115484   2.487   4.656   1.430
 5154WAT     H215485   2.480   4.665   1.279
 5155WAT      O15486   2.512   4.586   2.956
 5155WAT     H115487   2.436   4.643   2.947
 5155WAT     H215488   2.531   4.557   2.866
 5156WAT      O15489   2.821   4.623   1.418
 5156WAT     H115490   2.766   4.668   1.483
 5156WAT     H215491   2.883   4.573   1.470
 5157WAT      O15492   3.227   4.759   3.011
 5157WAT     H115493   3.301   4.793   2.961
 5157WAT     H215494   3.150   4.776   2.956
 5158WAT      O15495   2.010   4.259   3.092
 5158WAT     H115496   2.014   4.230   3.183
 5158WAT     H215497   2.096   4.299   3.076
 5159WAT      O15498   2.388   4.519   1.608
 5159WAT     H115499   2.430   4.503   1.692
 5159WAT     H215500   2.400   4.438   1.558
 5160WAT      O15501   2.204   4.117   2.888
 5160WAT     H115502   2.151   4.068   2.826
 5160WAT     H215503   2.271   4.160   2.835
 5161WAT      O15504   2.639   4.422   1.333
 5161WAT     H115505   2.691   4.350   1.296
 5161WAT     H215506   2.704   4.486   1.363
 5162WAT      O15507   3.094   4.564   2.865
 5162WAT     H115508   3.135   4.579   2.950
 5162WAT     H215509   3.001   4.577   2.881
 5163WAT      O15510   3.141   4.298   3.065
 5163WAT     H115511   3.199   4.222   3.056
 5163WAT     H215512   3.159   4.351   2.988
 5164WAT      O15513   2.253   3.814   2.896
 5164WAT     H115514   2.244   3.752   2.824
 5164WAT     H215515   2.195   3.887   2.874
 5165WAT      O15516   2.530   3.670   2.600
 5165WAT     H115517   2.485   3.672   2.515
 5165WAT     H215518   2.466   3.630   2.659
 5166WAT      O15519   2.570   4.559   2.662
 5166WAT     H115520   2.612   4.644   2.645
 5166WAT     H215521   2.478   4.573   2.639
 5167WAT      O15522   2.804   4.332   2.800
 5167WAT     H115523   2.816   4.273   2.874
 5167WAT     H215524   2.890   4.336   2.758
 5168WAT      O15525   3.038   4.388   2.658
 5168WAT     H115526   2.985   4.440   2.597
 5168WAT     H215527   3.072   4.451   2.721
 5169WAT      O15528   2.278   4.127   1.302
 5169WAT     H115529   2.257   4.040   1.338
 5169WAT     H215530   2.260   4.118   1.209
 5170WAT      O15531   2.355   5.190   2.773
 5170WAT     H115532   2.301   5.262   2.741
 5170WAT     H215533   2.381   5.142   2.694
 5171WAT      O15534   2.481   3.987   2.926
 5171WAT     H115535   2.540   3.956   2.995
 5171WAT     H215536   2.399   3.939   2.942
 5172WAT      O15537   2.962   3.948   2.949
 5172WAT     H115538   2.894   3.882   2.943
 5172WAT     H215539   3.035   3.904   2.994
 5173WAT      O15540   3.025   3.608   1.555
 5173WAT     H115541   3.053   3.523   1.591
 5173WAT     H215542   2.948   3.631   1.607
 5174WAT      O15543   2.157   3.837   1.301
 5174WAT     H115544   2.188   3.837   1.210
 5174WAT     H215545   2.231   3.802   1.351
 5175WAT      O15546   2.641   5.313   2.799
 5175WAT     H115547   2.633   5.404   2.830
 5175WAT     H215548   2.551   5.281   2.796
 5176WAT      O15549   2.479   3.731   1.400
 5176WAT     H115550   2.444   3.663   1.342
 5176WAT     H215551   2.499   3.685   1.481
 5177WAT      O15552   2.696   5.230   1.562
 5177WAT     H115553   2.785   5.264   1.564
 5177WAT     H215554   2.699   5.158   1.499
 5178WAT      O15555   2.060   4.767   1.384
 5178WAT     H115556   2.103   4.821   1.450
 5178WAT     H215557   2.108   4.685   1.385
 5179WAT      O15558   1.781   5.046   2.130
 5179WAT     H115559   1.814   4.959   2.106
 5179WAT     H215560   1.824   5.067   2.213
 5180WAT      O15561   2.241   4.879   1.896
 5180WAT     H115562   2.211   4.867   1.986
 5180WAT     H215563   2.230   4.793   1.855
 5181WAT      O15564   1.830   5.133   2.403
 5181WAT     H115565   1.786   5.151   2.487
 5181WAT     H215566   1.887   5.208   2.389
 5182WAT      O15567   3.394   5.083   2.832
 5182WAT     H115568   3.334   5.089   2.758
 5182WAT     H215569   3.407   4.989   2.845
 5183WAT      O15570   3.518   4.857   1.366
 5183WAT     H115571   3.435   4.864   1.413
 5183WAT     H215572   3.535   4.946   1.336
 5184WAT      O15573   3.463   4.532   1.616
 5184WAT     H115574   3.539   4.589   1.627
 5184WAT     H215575   3.465   4.475   1.693
 5185WAT      O15576   1.813   4.384   2.039
 5185WAT     H115577   1.748   4.357   1.975
 5185WAT     H215578   1.897   4.373   1.994
 5186WAT      O15579   3.564   4.617   2.101
 5186WAT     H115580   3.601   4.539   2.060
 5186WAT     H215581   3.628   4.686   2.083
 5187WAT      O15582   3.262   4.755   2.642
 5187WAT     H115583   3.181   4.798   2.668
 5187WAT     H215584   3.303   4.817   2.581
 5188WAT      O15585   3.468   4.561   1.332
 5188WAT     H115586   3.496   4.652   1.319
 5188WAT     H215587   3.450   4.555   1.426
 5189WAT      O15588   3.108   3.863   1.461
 5189WAT     H115589   3.150   3.845   1.377
 5189WAT     H215590   3.078   3.778   1.493
 5190WAT      O15591   3.458   4.355   1.831
 5190WAT     H115592   3.421   4.278   1.788
 5190WAT     H215593   3.385   4.393   1.880
 5191WAT      O15594   1.917   4.422   2.493
 5191WAT     H115595   1.954   4.414   2.581
 5191WAT     H215596   1.860   4.346   2.483
 5192WAT      O15597   3.397   4.269   2.795
 5192WAT     H115598   3.374   4.246   2.705
 5192WAT     H215599   3.423   4.361   2.790
 5193WAT      O15600   1.872   4.114   2.884
 5193WAT     H115601   1.783   4.110   2.918
 5193WAT     H215602   1.926   4.133   2.960
 5194WAT      O15603   1.735   4.105   1.634
 5194WAT     H115604   1.644   4.131   1.616
 5194WAT     H215605   1.783   4.132   1.556
 5195WAT      O15606   3.386   4.177   2.161
 5195WAT     H115607   3.438   4.128   2.098
 5195WAT     H215608   3.444   4.191   2.236
 5196WAT      O15609   3.404   4.186   2.514
 5196WAT     H115610   3.309   4.182   2.525
 5196WAT     H215611   3.422   4.277   2.490
 5197WAT      O15612   1.989   4.011   1.424
 5197WAT     H115613   2.060   3.968   1.376
 5197WAT     H215614   1.917   4.017   1.361
 5198WAT      O15615   1.954   3.616   1.329
 5198WAT     H115616   2.026   3.670   1.360
 5198WAT     H215617   1.981   3.589   1.241
 5199WAT      O15618   3.335   4.103   1.755
 5199WAT     H115619   3.384   4.080   1.834
 5199WAT     H215620   3.315   4.019   1.714
 5200WAT      O15621   1.923   3.541   2.319
 5200WAT     H115622   1.987   3.486   2.275
 5200WAT     H215623   1.965   3.566   2.401
 5201WAT      O15624   3.477   3.966   2.009
 5201WAT     H115625   3.466   3.951   2.102
 5201WAT     H215626   3.554   3.914   1.984
 5202WAT      O15627   3.312   3.560   2.654
 5202WAT     H115628   3.376   3.622   2.691
 5202WAT     H215629   3.327   3.564   2.560
 5203WAT      O15630   3.566   3.750   1.333
 5203WAT     H115631   3.659   3.736   1.312
 5203WAT     H215632   3.564   3.757   1.428
 5204WAT      O15633   3.574   3.827   1.595
 5204WAT     H115634   3.494   3.820   1.648
 5204WAT     H215635   3.594   3.920   1.594
 5205WAT      O15636   3.268   5.231   1.995
 5205WAT     H115637   3.328   5.198   1.927
 5205WAT     H215638   3.294   5.183   2.074
 5206WAT      O15639   1.898   3.557   2.593
 5206WAT     H115640   1.863   3.602   2.670
 5206WAT     H215641   1.865   3.467   2.601
 5207WAT      O15642   2.059   4.874   3.010
 5207WAT     H115643   2.054   4.837   3.098
 5207WAT     H215644   2.072   4.968   3.024
 5208WAT      O15645   2.429   5.029   2.570
 5208WAT     H115646   2.405   5.056   2.481
 5208WAT     H215647   2.523   5.046   2.575
 5209WAT      O15648   2.649   3.676   2.945
 5209WAT     H115649   2.643   3.735   3.020
 5209WAT     H215650   2.743   3.665   2.931
 5210WAT      O15651   2.913   3.641   2.909
 5210WAT     H115652   2.974   3.673   2.843
 5210WAT     H215653   2.967   3.593   2.971
 5211WAT      O15654   3.555   5.231   2.650
 5211WAT     H115655   3.505   5.271   2.578
 5211WAT     H215656   3.494   5.169   2.689
 5212WAT      O15657   1.965   3.509   2.921
 5212WAT     H115658   2.020   3.491   2.844
 5212WAT     H215659   1.972   3.430   2.974
 5213WAT      O15660   2.042   5.168   2.722
 5213WAT     H115661   1.983   5.155   2.795
 5213WAT     H215662   2.042   5.085   2.675
 5214WAT      O15663   2.987   3.498   2.542
 5214WAT     H115664   2.900   3.531   2.522
 5214WAT     H215665   2.976   3.450   2.624
 5215WAT      O15666   3.078   3.718   2.680
 5215WAT     H115667   3.045   3.637   2.642
 5215WAT     H215668   3.173   3.714   2.668
 5216WAT      O15669   3.323   5.296   2.378
 5216WAT     H115670   3.277   5.371   2.340
 5216WAT     H215671   3.260   5.224   2.372
 5217WAT      O15672   2.006   4.905   2.617
 5217WAT     H115673   1.933   4.843   2.610
 5217WAT     H215674   2.012   4.944   2.530
 5218WAT      O15675   2.366   5.126   2.295
 5218WAT     H115676   2.418   5.065   2.243
 5218WAT     H215677   2.431   5.177   2.344
 5219WAT      O15678   2.640   5.216   2.378
 5219WAT     H115679   2.669   5.190   2.290
 5219WAT     H215680   2.691   5.160   2.437
 5220WAT      O15681   2.762   3.589   2.436
 5220WAT     H115682   2.683   3.637   2.464
 5220WAT     H215683   2.732   3.499   2.425
 5221WAT      O15684   3.217   3.660   2.240
 5221WAT     H115685   3.261   3.654   2.155
 5221WAT     H215686   3.190   3.751   2.247
 5222WAT      O15687   3.403   3.623   2.041
 5222WAT     H115688   3.397   3.528   2.027
 5222WAT     H215689   3.481   3.634   2.096
 5223WAT      O15690   1.834   5.237   1.938
 5223WAT     H115691   1.817   5.173   2.007
 5223WAT     H215692   1.747   5.257   1.902
 5224WAT      O15693   1.896   3.620   1.688
 5224WAT     H115694   1.972   3.631   1.631
 5224WAT     H215695   1.850   3.704   1.683
 5225WAT      O15696   2.550   3.831   1.987
 5225WAT     H115697   2.469   3.794   1.953
 5225WAT     H215698   2.601   3.756   2.017
 5226WAT      O15699   3.001   3.498   2.111
 5226WAT     H115700   3.061   3.555   2.158
 5226WAT     H215701   2.926   3.554   2.088
 5227WAT      O15702   3.315   3.538   1.638
 5227WAT     H115703   3.334   3.628   1.665
 5227WAT     H215704   3.236   3.515   1.687
 5228WAT      O15705   1.995   5.106   1.682
 5228WAT     H115706   1.942   5.144   1.612
 5228WAT     H215707   1.987   5.169   1.754
 5229WAT      O15708   2.133   3.673   1.542
 5229WAT     H115709   2.186   3.594   1.529
 5229WAT     H215710   2.197   3.740   1.565
 5230WAT      O15711   2.353   3.646   1.847
 5230WAT     H115712   2.290   3.576   1.864
 5230WAT     H215713   2.299   3.722   1.826
 5231WAT      O15714   2.647   5.308   3.114
 5231WAT     H115715   2.739   5.284   3.119
 5231WAT     H215716   2.645   5.390   3.066
 5232WAT      O15717   3.470   5.262   1.814
 5232WAT     H115718   3.488   5.193   1.750
 5232WAT     H215719   3.400   5.314   1.775
 5233WAT      O15720   2.365   3.574   3.091
 5233WAT     H115721   2.337   3.624   3.014
 5233WAT     H215722   2.404   3.494   3.054
 5234WAT      O15723   2.254   5.301   1.570
 5234WAT     H115724   2.328   5.272   1.515
 5234WAT     H215725   2.280   5.277   1.659
 5235WAT      O15726   2.171   4.913   1.570
 5235WAT     H115727   2.108   4.959   1.625
 5235WAT     H215728   2.182   4.828   1.613
 5236WAT      O15729   3.303   5.230   3.097
 5236WAT     H115730   3.383   5.181   3.076
 5236WAT     H215731   3.333   5.298   3.158
 5237WAT      O15732   2.729   4.495   0.373
 5237WAT     H115733   2.652   4.447   0.402
 5237WAT     H215734   2.794   4.427   0.356
 5238WAT      O15735   2.131   4.527   0.461
 5238WAT     H115736   2.048   4.501   0.501
 5238WAT     H215737   2.192   4.534   0.534
 5239WAT      O15738   3.131   4.936   0.251
 5239WAT     H115739   3.085   4.859   0.284
 5239WAT     H215740   3.213   4.939   0.302
 5240WAT      O15741   2.129   4.930   0.480
 5240WAT     H115742   2.159   4.841   0.463
 5240WAT     H215743   2.203   4.986   0.458
 5241WAT      O15744   1.768   4.283   0.428
 5241WAT     H115745   1.825   4.206   0.428
 5241WAT     H215746   1.768   4.313   0.337
 5242WAT      O15747   2.673   4.763   0.374
 5242WAT     H115748   2.666   4.669   0.358
 5242WAT     H215749   2.750   4.772   0.431
 5243WAT      O15750   1.892   3.823   0.606
 5243WAT     H115751   1.874   3.734   0.634
 5243WAT     H215752   1.852   3.878   0.674
 5244WAT      O15753   2.776   4.044   0.397
 5244WAT     H115754   2.814   3.956   0.385
 5244WAT     H215755   2.767   4.077   0.307
 5245WAT      O15756   1.954   4.073   0.467
 5245WAT     H115757   2.022   4.099   0.529
 5245WAT     H215758   1.923   3.989   0.501
 5246WAT      O15759   2.374   4.178   0.376
 5246WAT     H115760   2.424   4.228   0.440
 5246WAT     H215761   2.427   4.100   0.358
 5247WAT      O15762   3.584   3.995   0.746
 5247WAT     H115763   3.513   4.034   0.694
 5247WAT     H215764   3.610   4.064   0.806
 5248WAT      O15765   2.202   3.642   0.803
 5248WAT     H115766   2.202   3.693   0.722
 5248WAT     H215767   2.119   3.594   0.800
 5249WAT      O15768   2.327   4.606   0.620
 5249WAT     H115769   2.294   4.668   0.685
 5249WAT     H215770   2.345   4.658   0.542
 5250WAT      O15771   3.178   3.987   0.367
 5250WAT     H115772   3.108   4.016   0.425
 5250WAT     H215773   3.214   4.068   0.331
 5251WAT      O15774   2.170   3.813   0.603
 5251WAT     H115775   2.204   3.897   0.574
 5251WAT     H215776   2.076   3.828   0.615
 5252WAT      O15777   2.248   4.803   0.802
 5252WAT     H115778   2.310   4.870   0.774
 5252WAT     H215779   2.162   4.843   0.793
 5253WAT      O15780   3.340   4.949   0.593
 5253WAT     H115781   3.272   5.016   0.593
 5253WAT     H215782   3.394   4.969   0.517
 5254WAT      O15783   3.485   3.932   0.406
 5254WAT     H115784   3.390   3.935   0.419
 5254WAT     H215785   3.518   4.013   0.445
 5255WAT      O15786   3.093   5.133   0.465
 5255WAT     H115787   3.095   5.093   0.378
 5255WAT     H215788   3.038   5.211   0.454
 5256WAT      O15789   3.033   4.624   0.598
 5256WAT     H115790   3.075   4.602   0.514
 5256WAT     H215791   3.106   4.649   0.655
 5257WAT      O15792   3.428   4.464   0.607
 5257WAT     H115793   3.345   4.470   0.559
 5257WAT     H215794   3.487   4.522   0.560
 5258WAT      O15795   3.124   4.142   0.701
 5258WAT     H115796   3.083   4.225   0.727
 5258WAT     H215797   3.051   4.084   0.682
 5259WAT      O15798   2.385   4.789   0.404
 5259WAT     H115799   2.355   4.729   0.336
 5259WAT     H215800   2.480   4.793   0.393
 5260WAT      O15801   2.209   4.098   0.566
 5260WAT     H115802   2.264   4.109   0.488
 5260WAT     H215803   2.260   4.136   0.637
 5261WAT      O15804   3.193   5.147   0.770
 5261WAT     H115805   3.146   5.228   0.751
 5261WAT     H215806   3.125   5.082   0.785
 5262WAT      O15807   2.294   4.763   1.069
 5262WAT     H115808   2.204   4.786   1.094
 5262WAT     H215809   2.296   4.776   0.974
 5263WAT      O15810   2.176   4.450   0.927
 5263WAT     H115811   2.163   4.538   0.963
 5263WAT     H215812   2.088   4.416   0.912
 5264WAT      O15813   2.356   5.045   1.147
 5264WAT     H115814   2.353   5.085   1.061
 5264WAT     H215815   2.340   4.952   1.131
 5265WAT      O15816   3.551   5.123   1.277
 5265WAT     H115817   3.599   5.171   1.345
 5265WAT     H215818   3.613   5.116   1.205
 5266WAT      O15819   1.772   4.627   0.518
 5266WAT     H115820   1.779   4.641   0.424
 5266WAT     H215821   1.833   4.557   0.538
 5267WAT      O15822   3.492   4.842   0.993
 5267WAT     H115823   3.504   4.818   0.901
 5267WAT     H215824   3.496   4.759   1.040
 5268WAT      O15825   2.878   5.212   0.850
 5268WAT     H115826   2.929   5.203   0.930
 5268WAT     H215827   2.794   5.247   0.879
 5269WAT      O15828   3.477   4.047   1.090
 5269WAT     H115829   3.415   4.098   1.037
 5269WAT     H215830   3.445   3.957   1.084
 5270WAT      O15831   1.777   4.732   0.772
 5270WAT     H115832   1.794   4.685   0.690
 5270WAT     H215833   1.824   4.681   0.839
 5271WAT      O15834   2.254   3.645   0.276
 5271WAT     H115835   2.210   3.723   0.243
 5271WAT     H215836   2.310   3.677   0.347
 5272WAT      O15837   2.683   3.931   0.836
 5272WAT     H115838   2.637   3.952   0.917
 5272WAT     H215839   2.643   3.850   0.806
 5273WAT      O15840   3.183   4.053   0.949
 5273WAT     H115841   3.098   4.023   0.981
 5273WAT     H215842   3.167   4.078   0.858
 5274WAT      O15843   2.893   4.203   1.159
 5274WAT     H115844   2.925   4.120   1.125
 5274WAT     H215845   2.971   4.256   1.174
 5275WAT      O15846   2.458   3.699   0.462
 5275WAT     H115847   2.488   3.790   0.454
 5275WAT     H215848   2.513   3.650   0.400
 5276WAT      O15849   2.478   4.247   1.115
 5276WAT     H115850   2.468   4.153   1.100
 5276WAT     H215851   2.562   4.269   1.076
 5277WAT      O15852   1.991   3.888   0.931
 5277WAT     H115853   1.951   3.973   0.951
 5277WAT     H215854   1.922   3.824   0.950
 5278WAT      O15855   2.648   3.896   1.238
 5278WAT     H115856   2.579   3.877   1.301
 5278WAT     H215857   2.722   3.925   1.291
 5279WAT      O15858   1.721   3.680   0.334
 5279WAT     H115859   1.692   3.737   0.405
 5279WAT     H215860   1.795   3.632   0.370
 5280WAT      O15861   2.876   4.280   0.521
 5280WAT     H115862   2.803   4.331   0.556
 5280WAT     H215863   2.836   4.199   0.491
 5281WAT      O15864   2.519   3.948   0.362
 5281WAT     H115865   2.520   3.904   0.277
 5281WAT     H215866   2.609   3.980   0.372
 5282WAT      O15867   2.105   3.936   0.258
 5282WAT     H115868   2.071   3.984   0.333
 5282WAT     H215869   2.028   3.891   0.222
 5283WAT      O15870   2.922   3.826   0.462
 5283WAT     H115871   2.924   3.871   0.547
 5283WAT     H215872   2.897   3.736   0.484
 5284WAT      O15873   3.265   3.567   1.046
 5284WAT     H115874   3.297   3.494   1.099
 5284WAT     H215875   3.268   3.535   0.956
 5285WAT      O15876   1.935   4.669   0.988
 5285WAT     H115877   1.896   4.605   1.048
 5285WAT     H215878   1.966   4.739   1.045
 5286WAT      O15879   2.550   4.354   0.536
 5286WAT     H115880   2.586   4.306   0.611
 5286WAT     H215881   2.531   4.441   0.570
 5287WAT      O15882   2.329   4.258   0.768
 5287WAT     H115883   2.298   4.346   0.791
 5287WAT     H215884   2.424   4.264   0.772
 5288WAT      O15885   3.257   4.578   0.407
 5288WAT     H115886   3.329   4.628   0.368
 5288WAT     H215887   3.237   4.510   0.343
 5289WAT      O15888   2.795   4.585   0.996
 5289WAT     H115889   2.789   4.493   0.970
 5289WAT     H215890   2.732   4.595   1.067
 5290WAT      O15891   2.186   4.645   0.192
 5290WAT     H115892   2.238   4.565   0.186
 5290WAT     H215893   2.141   4.639   0.276
 5291WAT      O15894   1.934   4.342   0.883
 5291WAT     H115895   1.898   4.408   0.942
 5291WAT     H215896   1.905   4.259   0.920
 5292WAT      O15897   2.254   4.388   1.171
 5292WAT     H115898   2.224   4.402   1.081
 5292WAT     H215899   2.331   4.332   1.162
 5293WAT      O15900   2.789   4.867   0.971
 5293WAT     H115901   2.790   4.774   0.949
 5293WAT     H215902   2.718   4.876   1.035
 5294WAT      O15903   3.410   4.532   0.905
 5294WAT     H115904   3.337   4.591   0.886
 5294WAT     H215905   3.462   4.531   0.826
 5295WAT      O15906   2.963   4.704   0.255
 5295WAT     H115907   2.998   4.644   0.189
 5295WAT     H215908   2.874   4.672   0.272
 5296WAT      O15909   2.732   5.032   0.680
 5296WAT     H115910   2.796   5.052   0.748
 5296WAT     H215911   2.768   4.956   0.635
 5297WAT      O15912   2.859   4.832   0.552
 5297WAT     H115913   2.923   4.762   0.563
 5297WAT     H215914   2.912   4.910   0.534
 5298WAT      O15915   3.037   4.912   0.872
 5298WAT     H115916   3.070   4.971   0.940
 5298WAT     H215917   2.945   4.899   0.895
 5299WAT      O15918   1.792   3.691   0.951
 5299WAT     H115919   1.720   3.711   1.011
 5299WAT     H215920   1.834   3.613   0.988
 5300WAT      O15921   1.820   5.090   1.049
 5300WAT     H115922   1.831   4.996   1.035
 5300WAT     H215923   1.755   5.116   0.984
 5301WAT      O15924   2.620   4.917   1.189
 5301WAT     H115925   2.588   4.845   1.244
 5301WAT     H215926   2.552   4.984   1.197
 5302WAT      O15927   2.941   3.940   0.726
 5302WAT     H115928   2.978   3.858   0.758
 5302WAT     H215929   2.855   3.946   0.767
 5303WAT      O15930   2.637   4.205   0.748
 5303WAT     H115931   2.687   4.253   0.814
 5303WAT     H215932   2.651   4.113   0.769
 5304WAT      O15933   3.358   3.827   0.832
 5304WAT     H115934   3.307   3.901   0.866
 5304WAT     H215935   3.439   3.866   0.801
 5305WAT      O15936   3.187   4.352   0.177
 5305WAT     H115937   3.093   4.353   0.194
 5305WAT     H215938   3.218   4.273   0.221
 5306WAT      O15939   3.387   5.069   0.344
 5306WAT     H115940   3.400   5.151   0.392
 5306WAT     H215941   3.474   5.048   0.310
 5307WAT      O15942   2.134   5.278   0.312
 5307WAT     H115943   2.208   5.223   0.339
 5307WAT     H215944   2.173   5.364   0.298
 5308WAT      O15945   2.035   5.196   1.230
 5308WAT     H115946   2.115   5.228   1.272
 5308WAT     H215947   1.984   5.160   1.303
 5309WAT      O15948   2.919   4.807   1.225
 5309WAT     H115949   2.858   4.809   1.151
 5309WAT     H215950   2.888   4.734   1.279
 5310WAT      O15951   3.062   5.180   1.086
 5310WAT     H115952   3.157   5.172   1.081
 5310WAT     H215953   3.047   5.246   1.154
 5311WAT      O15954   1.807   4.445   1.125
 5311WAT     H115955   1.857   4.387   1.182
 5311WAT     H215956   1.733   4.474   1.179
 5312WAT      O15957   2.512   4.586   1.078
 5312WAT     H115958   2.436   4.643   1.070
 5312WAT     H215959   2.531   4.557   0.989
 5313WAT      O15960   3.227   4.759   1.134
 5313WAT     H115961   3.301   4.793   1.084
 5313WAT     H215962   3.150   4.776   1.079
 5314WAT      O15963   2.010   4.259   1.214
 5314WAT     H115964   2.014   4.230   1.305
 5314WAT     H215965   2.096   4.299   1.198
 5315WAT      O15966   2.204   4.117   1.011
 5315WAT     H115967   2.151   4.068   0.948
 5315WAT     H215968   2.271   4.160   0.958
 5316WAT      O15969   3.094   4.564   0.987
 5316WAT     H115970   3.135   4.579   1.072
 5316WAT     H215971   3.001   4.577   1.004
 5317WAT      O15972   3.141   4.298   1.188
 5317WAT     H115973   3.199   4.222   1.179
 5317WAT     H215974   3.159   4.351   1.110
 5318WAT      O15975   2.253   3.814   1.019
 5318WAT     H115976   2.244   3.752   0.946
 5318WAT     H215977   2.195   3.887   0.996
 5319WAT      O15978   2.530   3.670   0.722
 5319WAT     H115979   2.485   3.672   0.638
 5319WAT     H215980   2.466   3.630   0.782
 5320WAT      O15981   2.570   4.559   0.784
 5320WAT     H115982   2.612   4.644   0.767
 5320WAT     H215983   2.478   4.573   0.761
 5321WAT      O15984   2.804   4.332   0.923
 5321WAT     H115985   2.816   4.273   0.997
 5321WAT     H215986   2.890   4.336   0.881
 5322WAT      O15987   3.038   4.388   0.780
 5322WAT     H115988   2.985   4.440   0.720
 5322WAT     H215989   3.072   4.451   0.843
 5323WAT      O15990   2.355   5.190   0.896
 5323WAT     H115991   2.301   5.262   0.864
 5323WAT     H215992   2.381   5.142   0.817
 5324WAT      O15993   2.481   3.987   1.049
 5324WAT     H115994   2.540   3.956   1.117
 5324WAT     H215995   2.399   3.939   1.064
 5325WAT      O15996   2.962   3.948   1.072
 5325WAT     H115997   2.894   3.882   1.065
 5325WAT     H215998   3.035   3.904   1.116
 5326WAT      O15999   2.641   5.313   0.922
 5326WAT     H116000   2.633   5.404   0.953
 5326WAT     H216001   2.551   5.281   0.919
 5327WAT      O16002   1.781   5.046   0.252
 5327WAT     H116003   1.814   4.959   0.229
 5327WAT     H216004   1.824   5.067   0.335
 5328WAT      O16005   1.830   5.133   0.526
 5328WAT     H116006   1.786   5.151   0.609
 5328WAT     H216007   1.887   5.208   0.512
 5329WAT      O16008   3.394   5.083   0.955
 5329WAT     H116009   3.334   5.089   0.880
 5329WAT     H216010   3.407   4.989   0.968
 5330WAT      O16011   3.564   4.617   0.223
 5330WAT     H116012   3.601   4.539   0.183
 5330WAT     H216013   3.628   4.686   0.205
 5331WAT      O16014   3.262   4.755   0.765
 5331WAT     H116015   3.181   4.798   0.791
 5331WAT     H216016   3.303   4.817   0.703
 5332WAT      O16017   1.917   4.422   0.616
 5332WAT     H116018   1.954   4.414   0.704
 5332WAT     H216019   1.860   4.346   0.606
 5333WAT      O16020   3.397   4.269   0.917
 5333WAT     H116021   3.374   4.246   0.827
 5333WAT     H216022   3.423   4.361   0.913
 5334WAT      O16023   1.872   4.114   1.006
 5334WAT     H116024   1.783   4.110   1.040
 5334WAT     H216025   1.926   4.133   1.083
 5335WAT      O16026   3.241   3.792   1.195
 5335WAT     H116027   3.329   3.793   1.233
 5335WAT     H216028   3.242   3.718   1.134
 5336WAT      O16029   3.386   4.177   0.284
 5336WAT     H116030   3.438   4.128   0.221
 5336WAT     H216031   3.444   4.191   0.358
 5337WAT      O16032   3.404   4.186   0.636
 5337WAT     H116033   3.309   4.182   0.648
 5337WAT     H216034   3.422   4.277   0.613
 5338WAT      O16035   1.923   3.541   0.441
 5338WAT     H116036   1.987   3.486   0.397
 5338WAT     H216037   1.965   3.566   0.523
 5339WAT      O16038   3.312   3.560   0.777
 5339WAT     H116039   3.376   3.622   0.814
 5339WAT     H216040   3.327   3.564   0.683
 5340WAT      O16041   1.898   3.557   0.716
 5340WAT     H116042   1.863   3.602   0.792
 5340WAT     H216043   1.865   3.467   0.724
 5341WAT      O16044   2.059   4.874   1.132
 5341WAT     H116045   2.054   4.837   1.220
 5341WAT     H216046   2.072   4.968   1.146
 5342WAT      O16047   2.429   5.029   0.692
 5342WAT     H116048   2.405   5.056   0.603
 5342WAT     H216049   2.523   5.046   0.698
 5343WAT      O16050   2.649   3.676   1.068
 5343WAT     H116051   2.643   3.735   1.143
 5343WAT     H216052   2.743   3.665   1.053
 5344WAT      O16053   2.913   3.641   1.032
 5344WAT     H116054   2.974   3.673   0.965
 5344WAT     H216055   2.967   3.593   1.094
 5345WAT      O16056   3.555   5.231   0.772
 5345WAT     H116057   3.505   5.271   0.701
 5345WAT     H216058   3.494   5.169   0.812
 5346WAT      O16059   1.965   3.509   1.043
 5346WAT     H116060   2.020   3.491   0.967
 5346WAT     H216061   1.972   3.430   1.097
 5347WAT      O16062   2.042   5.168   0.844
 5347WAT     H116063   1.983   5.155   0.918
 5347WAT     H216064   2.042   5.085   0.797
 5348WAT      O16065   2.987   3.498   0.664
 5348WAT     H116066   2.900   3.531   0.644
 5348WAT     H216067   2.976   3.450   0.747
 5349WAT      O16068   3.078   3.718   0.803
 5349WAT     H116069   3.045   3.637   0.765
 5349WAT     H216070   3.173   3.714   0.790
 5350WAT      O16071   3.323   5.296   0.500
 5350WAT     H116072   3.277   5.371   0.463
 5350WAT     H216073   3.260   5.224   0.494
 5351WAT      O16074   2.006   4.905   0.739
 5351WAT     H116075   1.933   4.843   0.732
 5351WAT     H216076   2.012   4.944   0.652
 5352WAT      O16077   2.366   5.126   0.418
 5352WAT     H116078   2.418   5.065   0.365
 5352WAT     H216079   2.431   5.177   0.467
 5353WAT      O16080   2.640   5.216   0.500
 5353WAT     H116081   2.669   5.190   0.413
 5353WAT     H216082   2.691   5.160   0.559
 5354WAT      O16083   2.762   3.589   0.558
 5354WAT     H116084   2.683   3.637   0.586
 5354WAT     H216085   2.732   3.499   0.547
 5355WAT      O16086   3.217   3.660   0.363
 5355WAT     H116087   3.261   3.654   0.278
 5355WAT     H216088   3.190   3.751   0.370
 5356WAT      O16089   3.001   3.498   0.233
 5356WAT     H116090   3.061   3.555   0.281
 5356WAT     H216091   2.926   3.554   0.211
 5357WAT      O16092   2.647   5.308   1.237
 5357WAT     H116093   2.739   5.284   1.241
 5357WAT     H216094   2.645   5.390   1.189
 5358WAT      O16095   2.365   3.574   1.213
 5358WAT     H116096   2.337   3.624   1.137
 5358WAT     H216097   2.404   3.494   1.177
 5359WAT      O16098   3.026   3.516   1.271
 5359WAT     H116099   3.014   3.548   1.361
 5359WAT     H216100   3.107   3.556   1.242
 5360WAT      O16101   3.303   5.230   1.219
 5360WAT     H116102   3.383   5.181   1.199
 5360WAT     H216103   3.333   5.298   1.280
 5361WAT      O16104   2.916   2.440   5.817
 5361WAT     H116105   2.908   2.349   5.790
 5361WAT     H216106   2.875   2.490   5.747
 5362WAT      O16107   2.729   2.618   6.005
 5362WAT     H116108   2.652   2.570   6.034
 5362WAT     H216109   2.794   2.550   5.988
 5363WAT      O16110   3.131   3.059   5.883
 5363WAT     H116111   3.085   2.981   5.916
 5363WAT     H216112   3.213   3.061   5.934
 5364WAT      O16113   2.129   3.053   6.113
 5364WAT     H116114   2.159   2.964   6.095
 5364WAT     H216115   2.203   3.108   6.090
 5365WAT      O16116   1.972   2.145   5.472
 5365WAT     H116117   1.883   2.179   5.461
 5365WAT     H216118   2.000   2.125   5.382
 5366WAT      O16119   1.768   2.405   6.060
 5366WAT     H116120   1.825   2.328   6.060
 5366WAT     H216121   1.768   2.435   5.969
 5367WAT      O16122   2.754   3.287   5.845
 5367WAT     H116123   2.692   3.333   5.788
 5367WAT     H216124   2.840   3.303   5.805
 5368WAT      O16125   2.673   2.886   6.006
 5368WAT     H116126   2.666   2.791   5.990
 5368WAT     H216127   2.750   2.895   6.063
 5369WAT      O16128   2.776   2.166   6.029
 5369WAT     H116129   2.814   2.079   6.018
 5369WAT     H216130   2.767   2.200   5.940
 5370WAT      O16131   2.189   2.003   5.575
 5370WAT     H116132   2.200   2.094   5.606
 5370WAT     H216133   2.098   1.999   5.546
 5371WAT      O16134   3.155   1.916   5.722
 5371WAT     H116135   3.237   1.867   5.726
 5371WAT     H216136   3.158   1.975   5.797
 5372WAT      O16137   2.374   2.300   6.008
 5372WAT     H116138   2.424   2.350   6.072
 5372WAT     H216139   2.427   2.223   5.991
 5373WAT      O16140   2.841   2.776   5.585
 5373WAT     H116141   2.779   2.822   5.528
 5373WAT     H216142   2.892   2.845   5.626
 5374WAT      O16143   3.178   2.110   5.999
 5374WAT     H116144   3.108   2.139   6.057
 5374WAT     H216145   3.214   2.191   5.963
 5375WAT      O16146   1.777   2.844   5.322
 5375WAT     H116147   1.740   2.893   5.249
 5375WAT     H216148   1.803   2.911   5.385
 5376WAT      O16149   3.485   2.054   6.038
 5376WAT     H116150   3.390   2.058   6.052
 5376WAT     H216151   3.518   2.136   6.077
 5377WAT      O16152   2.538   1.684   5.868
 5377WAT     H116153   2.569   1.629   5.796
 5377WAT     H216154   2.445   1.698   5.850
 5378WAT      O16155   3.093   3.256   6.097
 5378WAT     H116156   3.095   3.216   6.010
 5378WAT     H216157   3.038   3.333   6.087
 5379WAT      O16158   3.223   2.928   5.606
 5379WAT     H116159   3.212   2.834   5.618
 5379WAT     H216160   3.223   2.964   5.695
 5380WAT      O16161   2.777   2.491   5.542
 5380WAT     H116162   2.684   2.484   5.565
 5380WAT     H216163   2.792   2.585   5.530
 5381WAT      O16164   2.776   2.118   5.241
 5381WAT     H116165   2.682   2.134   5.250
 5381WAT     H216166   2.808   2.190   5.187
 5382WAT      O16167   3.180   2.647   5.592
 5382WAT     H116168   3.118   2.613   5.527
 5382WAT     H216169   3.178   2.583   5.663
 5383WAT      O16170   2.338   2.543   5.820
 5383WAT     H116171   2.297   2.472   5.770
 5383WAT     H216172   2.346   2.509   5.909
 5384WAT      O16173   2.385   2.912   6.036
 5384WAT     H116174   2.355   2.852   5.968
 5384WAT     H216175   2.480   2.916   6.025
 5385WAT      O16176   2.998   2.571   5.293
 5385WAT     H116177   3.042   2.487   5.278
 5385WAT     H216178   3.069   2.634   5.301
 5386WAT      O16179   2.809   3.065   5.690
 5386WAT     H116180   2.853   3.139   5.648
 5386WAT     H216181   2.803   3.089   5.782
 5387WAT      O16182   3.356   1.696   5.124
 5387WAT     H116183   3.325   1.705   5.214
 5387WAT     H216184   3.432   1.754   5.119
 5388WAT      O16185   2.008   2.433   5.570
 5388WAT     H116186   1.996   2.505   5.509
 5388WAT     H216187   1.977   2.356   5.522
 5389WAT      O16188   1.896   2.920   5.792
 5389WAT     H116189   1.855   2.934   5.706
 5389WAT     H216190   1.985   2.892   5.771
 5390WAT      O16191   3.075   3.363   5.425
 5390WAT     H116192   3.059   3.334   5.515
 5390WAT     H216193   3.059   3.286   5.372
 5391WAT      O16194   2.323   3.341   5.603
 5391WAT     H116195   2.306   3.250   5.582
 5391WAT     H216196   2.238   3.377   5.627
 5392WAT      O16197   3.046   3.114   5.281
 5392WAT     H116198   2.976   3.114   5.215
 5392WAT     H216199   3.120   3.072   5.238
 5393WAT      O16200   3.002   3.277   5.689
 5393WAT     H116201   3.048   3.199   5.720
 5393WAT     H216202   3.036   3.348   5.743
 5394WAT      O16203   2.254   1.767   5.908
 5394WAT     H116204   2.210   1.845   5.875
 5394WAT     H216205   2.310   1.799   5.979
 5395WAT      O16206   2.566   1.729   5.396
 5395WAT     H116207   2.504   1.729   5.469
 5395WAT     H216208   2.557   1.643   5.357
 5396WAT      O16209   2.458   1.822   6.094
 5396WAT     H116210   2.488   1.912   6.086
 5396WAT     H216211   2.513   1.773   6.033
 5397WAT      O16212   2.234   2.280   5.681
 5397WAT     H116213   2.211   2.258   5.771
 5397WAT     H216214   2.155   2.323   5.646
 5398WAT      O16215   2.957   2.280   5.541
 5398WAT     H116216   2.897   2.353   5.522
 5398WAT     H216217   3.011   2.274   5.463
 5399WAT      O16218   2.817   2.144   5.744
 5399WAT     H116219   2.856   2.175   5.663
 5399WAT     H216220   2.853   2.056   5.755
 5400WAT      O16221   1.721   1.803   5.966
 5400WAT     H116222   1.692   1.860   6.037
 5400WAT     H216223   1.795   1.755   6.002
 5401WAT      O16224   1.740   2.197   5.087
 5401WAT     H116225   1.731   2.291   5.101
 5401WAT     H216226   1.704   2.183   4.999
 5402WAT      O16227   2.519   2.070   5.994
 5402WAT     H116228   2.520   2.026   5.909
 5402WAT     H216229   2.609   2.103   6.005
 5403WAT      O16230   2.105   2.059   5.890
 5403WAT     H116231   2.071   2.106   5.966
 5403WAT     H216232   2.028   2.013   5.854
 5404WAT      O16233   2.526   2.170   5.293
 5404WAT     H116234   2.538   2.166   5.388
 5404WAT     H216235   2.487   2.257   5.277
 5405WAT      O16236   2.427   2.402   5.233
 5405WAT     H116237   2.370   2.357   5.170
 5405WAT     H216238   2.498   2.437   5.179
 5406WAT      O16239   1.836   1.951   5.782
 5406WAT     H116240   1.807   1.914   5.865
 5406WAT     H216241   1.830   1.878   5.720
 5407WAT      O16242   2.181   2.801   5.460
 5407WAT     H116243   2.104   2.747   5.444
 5407WAT     H216244   2.254   2.749   5.426
 5408WAT      O16245   3.257   2.701   6.039
 5408WAT     H116246   3.329   2.750   6.000
 5408WAT     H216247   3.237   2.633   5.975
 5409WAT      O16248   2.803   1.840   5.454
 5409WAT     H116249   2.722   1.790   5.446
 5409WAT     H216250   2.784   1.924   5.412
 5410WAT      O16251   3.075   2.277   5.283
 5410WAT     H116252   3.164   2.308   5.266
 5410WAT     H216253   3.072   2.190   5.244
 5411WAT      O16254   2.186   2.768   5.824
 5411WAT     H116255   2.238   2.688   5.818
 5411WAT     H216256   2.141   2.762   5.908
 5412WAT      O16257   2.674   2.895   5.351
 5412WAT     H116258   2.709   2.969   5.302
 5412WAT     H216259   2.592   2.926   5.387
 5413WAT      O16260   3.302   2.408   5.230
 5413WAT     H116261   3.294   2.452   5.145
 5413WAT     H216262   3.374   2.454   5.273
 5414WAT      O16263   3.405   3.094   5.503
 5414WAT     H116264   3.341   3.028   5.530
 5414WAT     H216265   3.366   3.134   5.425
 5415WAT      O16266   2.963   2.827   5.888
 5415WAT     H116267   2.998   2.767   5.822
 5415WAT     H216268   2.874   2.794   5.905
 5416WAT      O16269   2.571   2.903   5.628
 5416WAT     H116270   2.640   2.957   5.666
 5416WAT     H216271   2.493   2.957   5.632
 5417WAT      O16272   1.785   2.464   5.177
 5417WAT     H116273   1.872   2.493   5.206
 5417WAT     H216274   1.736   2.546   5.166
 5418WAT      O16275   2.502   2.603   5.590
 5418WAT     H116276   2.547   2.684   5.612
 5418WAT     H216277   2.467   2.571   5.673
 5419WAT      O16278   2.092   1.638   5.637
 5419WAT     H116279   2.079   1.637   5.732
 5419WAT     H216280   2.009   1.671   5.602
 5420WAT      O16281   3.244   2.983   5.157
 5420WAT     H116282   3.221   2.911   5.216
 5420WAT     H216283   3.205   2.958   5.073
 5421WAT      O16284   1.822   3.386   5.234
 5421WAT     H116285   1.858   3.446   5.169
 5421WAT     H216286   1.808   3.440   5.311
 5422WAT      O16287   3.202   2.775   5.323
 5422WAT     H116288   3.173   2.821   5.402
 5422WAT     H216289   3.282   2.729   5.350
 5423WAT      O16290   2.424   3.124   5.316
 5423WAT     H116291   2.423   3.197   5.254
 5423WAT     H216292   2.332   3.099   5.325
 5424WAT      O16293   1.984   2.646   5.390
 5424WAT     H116294   1.923   2.720   5.391
 5424WAT     H216295   2.031   2.655   5.308
 5425WAT      O16296   3.278   1.958   5.439
 5425WAT     H116297   3.215   1.969   5.367
 5425WAT     H216298   3.228   1.980   5.518
 5426WAT      O16299   2.722   3.130   5.182
 5426WAT     H116300   2.732   3.110   5.089
 5426WAT     H216301   2.632   3.105   5.203
 5427WAT      O16302   2.475   2.186   5.580
 5427WAT     H116303   2.404   2.233   5.624
 5427WAT     H216304   2.503   2.120   5.644
 5428WAT      O16305   2.878   1.859   5.724
 5428WAT     H116306   2.865   1.860   5.629
 5428WAT     H216307   2.973   1.863   5.736
 5429WAT      O16308   2.586   3.382   5.652
 5429WAT     H116309   2.612   3.378   5.559
 5429WAT     H216310   2.492   3.369   5.651
 5430WAT      O16311   2.295   2.017   5.318
 5430WAT     H116312   2.380   2.061   5.311
 5430WAT     H216313   2.258   2.048   5.401
 5431WAT      O16314   3.187   2.474   5.809
 5431WAT     H116315   3.093   2.476   5.827
 5431WAT     H216316   3.218   2.395   5.854
 5432WAT      O16317   2.185   2.642   5.165
 5432WAT     H116318   2.261   2.631   5.221
 5432WAT     H216319   2.193   2.573   5.100
 5433WAT      O16320   2.054   2.386   5.234
 5433WAT     H116321   2.062   2.291   5.245
 5433WAT     H216322   2.143   2.419   5.244
 5434WAT      O16323   3.387   3.191   5.977
 5434WAT     H116324   3.400   3.273   6.024
 5434WAT     H216325   3.474   3.170   5.942
 5435WAT      O16326   2.134   3.400   5.944
 5435WAT     H116327   2.208   3.346   5.971
 5435WAT     H216328   2.173   3.487   5.930
 5436WAT      O16329   1.823   3.007   5.531
 5436WAT     H116330   1.730   3.031   5.530
 5436WAT     H216331   1.869   3.090   5.519
 5437WAT      O16332   2.445   3.318   5.126
 5437WAT     H116333   2.525   3.347   5.081
 5437WAT     H216334   2.393   3.275   5.058
 5438WAT      O16335   3.351   3.240   5.268
 5438WAT     H116336   3.322   3.199   5.187
 5438WAT     H216337   3.331   3.333   5.256
 5439WAT      O16338   2.497   2.840   5.113
 5439WAT     H116339   2.487   2.778   5.185
 5439WAT     H216340   2.480   2.787   5.034
 5440WAT      O16341   2.821   2.746   5.173
 5440WAT     H116342   2.766   2.791   5.237
 5440WAT     H216343   2.883   2.696   5.225
 5441WAT      O16344   2.388   2.642   5.363
 5441WAT     H116345   2.430   2.625   5.447
 5441WAT     H216346   2.400   2.561   5.313
 5442WAT      O16347   2.639   2.544   5.087
 5442WAT     H116348   2.691   2.473   5.051
 5442WAT     H216349   2.704   2.608   5.117
 5443WAT      O16350   2.278   2.249   5.057
 5443WAT     H116351   2.257   2.163   5.093
 5443WAT     H216352   2.260   2.241   4.963
 5444WAT      O16353   3.025   1.730   5.310
 5444WAT     H116354   3.053   1.646   5.346
 5444WAT     H216355   2.948   1.754   5.361
 5445WAT      O16356   2.157   1.959   5.056
 5445WAT     H116357   2.188   1.960   4.965
 5445WAT     H216358   2.231   1.924   5.106
 5446WAT      O16359   2.479   1.854   5.155
 5446WAT     H116360   2.444   1.786   5.097
 5446WAT     H216361   2.499   1.807   5.236
 5447WAT      O16362   2.696   3.352   5.316
 5447WAT     H116363   2.785   3.386   5.319
 5447WAT     H216364   2.699   3.280   5.254
 5448WAT      O16365   2.060   2.890   5.139
 5448WAT     H116366   2.103   2.944   5.205
 5448WAT     H216367   2.108   2.807   5.140
 5449WAT      O16368   1.781   3.169   5.884
 5449WAT     H116369   1.814   3.082   5.861
 5449WAT     H216370   1.824   3.189   5.968
 5450WAT      O16371   2.241   3.002   5.650
 5450WAT     H116372   2.211   2.989   5.741
 5450WAT     H216373   2.230   2.916   5.610
 5451WAT      O16374   3.518   2.980   5.121
 5451WAT     H116375   3.435   2.986   5.168
 5451WAT     H216376   3.535   3.069   5.090
 5452WAT      O16377   3.463   2.654   5.371
 5452WAT     H116378   3.539   2.711   5.382
 5452WAT     H216379   3.465   2.597   5.448
 5453WAT      O16380   1.813   2.506   5.794
 5453WAT     H116381   1.748   2.480   5.730
 5453WAT     H216382   1.897   2.496   5.749
 5454WAT      O16383   3.564   2.740   5.856
 5454WAT     H116384   3.601   2.661   5.815
 5454WAT     H216385   3.628   2.808   5.838
 5455WAT      O16386   3.468   2.683   5.087
 5455WAT     H116387   3.496   2.774   5.074
 5455WAT     H216388   3.450   2.677   5.180
 5456WAT      O16389   3.108   1.986   5.216
 5456WAT     H116390   3.150   1.967   5.132
 5456WAT     H216391   3.078   1.901   5.247
 5457WAT      O16392   3.458   2.477   5.586
 5457WAT     H116393   3.421   2.400   5.543
 5457WAT     H216394   3.385   2.515   5.635
 5458WAT      O16395   1.735   2.227   5.388
 5458WAT     H116396   1.644   2.254   5.371
 5458WAT     H216397   1.783   2.255   5.310
 5459WAT      O16398   3.386   2.300   5.916
 5459WAT     H116399   3.438   2.250   5.853
 5459WAT     H216400   3.444   2.313   5.991
 5460WAT      O16401   1.989   2.133   5.179
 5460WAT     H116402   2.060   2.091   5.131
 5460WAT     H216403   1.917   2.140   5.116
 5461WAT      O16404   1.954   1.739   5.083
 5461WAT     H116405   2.026   1.793   5.115
 5461WAT     H216406   1.981   1.711   4.996
 5462WAT      O16407   3.335   2.225   5.510
 5462WAT     H116408   3.384   2.202   5.589
 5462WAT     H216409   3.315   2.142   5.468
 5463WAT      O16410   3.477   2.089   5.763
 5463WAT     H116411   3.466   2.074   5.857
 5463WAT     H216412   3.554   2.036   5.739
 5464WAT      O16413   3.566   1.872   5.088
 5464WAT     H116414   3.659   1.859   5.067
 5464WAT     H216415   3.564   1.880   5.183
 5465WAT      O16416   3.574   1.949   5.350
 5465WAT     H116417   3.494   1.943   5.403
 5465WAT     H216418   3.594   2.043   5.349
 5466WAT      O16419   3.268   3.353   5.749
 5466WAT     H116420   3.328   3.321   5.682
 5466WAT     H216421   3.294   3.306   5.829
 5467WAT      O16422   3.323   3.418   6.132
 5467WAT     H116423   3.277   3.493   6.095
 5467WAT     H216424   3.260   3.346   6.127
 5468WAT      O16425   2.366   3.249   6.050
 5468WAT     H116426   2.418   3.188   5.997
 5468WAT     H216427   2.431   3.299   6.099
 5469WAT      O16428   3.217   1.782   5.995
 5469WAT     H116429   3.261   1.777   5.910
 5469WAT     H216430   3.190   1.874   6.002
 5470WAT      O16431   3.403   1.745   5.796
 5470WAT     H116432   3.397   1.651   5.781
 5470WAT     H216433   3.481   1.756   5.851
 5471WAT      O16434   1.834   3.359   5.692
 5471WAT     H116435   1.817   3.296   5.762
 5471WAT     H216436   1.747   3.380   5.657
 5472WAT      O16437   1.896   1.742   5.443
 5472WAT     H116438   1.972   1.754   5.385
 5472WAT     H216439   1.850   1.826   5.438
 5473WAT      O16440   2.550   1.954   5.742
 5473WAT     H116441   2.469   1.916   5.708
 5473WAT     H216442   2.601   1.878   5.772
 5474WAT      O16443   3.001   1.620   5.866
 5474WAT     H116444   3.061   1.677   5.913
 5474WAT     H216445   2.926   1.677   5.843
 5475WAT      O16446   3.315   1.660   5.393
 5475WAT     H116447   3.334   1.750   5.420
 5475WAT     H216448   3.236   1.637   5.442
 5476WAT      O16449   1.995   3.229   5.437
 5476WAT     H116450   1.942   3.267   5.367
 5476WAT     H216451   1.987   3.291   5.509
 5477WAT      O16452   2.133   1.795   5.297
 5477WAT     H116453   2.186   1.716   5.284
 5477WAT     H216454   2.197   1.863   5.320
 5478WAT      O16455   2.353   1.769   5.602
 5478WAT     H116456   2.290   1.699   5.619
 5478WAT     H216457   2.299   1.845   5.581
 5479WAT      O16458   3.470   3.384   5.569
 5479WAT     H116459   3.488   3.316   5.505
 5479WAT     H216460   3.400   3.437   5.530
 5480WAT      O16461   2.254   3.423   5.324
 5480WAT     H116462   2.328   3.395   5.270
 5480WAT     H216463   2.280   3.400   5.413
 5481WAT      O16464   2.171   3.035   5.325
 5481WAT     H116465   2.108   3.082   5.380
 5481WAT     H216466   2.182   2.951   5.368
 5482WAT      O16467   2.916   2.440   3.940
 5482WAT     H116468   2.908   2.349   3.913
 5482WAT     H216469   2.875   2.490   3.869
 5483WAT      O16470   2.729   2.618   4.128
 5483WAT     H116471   2.652   2.570   4.157
 5483WAT     H216472   2.794   2.550   4.111
 5484WAT      O16473   2.131   2.649   4.216
 5484WAT     H116474   2.048   2.624   4.256
 5484WAT     H216475   2.192   2.656   4.289
 5485WAT      O16476   3.131   3.059   4.006
 5485WAT     H116477   3.085   2.981   4.039
 5485WAT     H216478   3.213   3.061   4.057
 5486WAT      O16479   2.129   3.053   4.235
 5486WAT     H116480   2.159   2.964   4.217
 5486WAT     H216481   2.203   3.108   4.213
 5487WAT      O16482   1.972   2.145   3.594
 5487WAT     H116483   1.883   2.179   3.584
 5487WAT     H216484   2.000   2.125   3.505
 5488WAT      O16485   1.768   2.405   4.183
 5488WAT     H116486   1.825   2.328   4.183
 5488WAT     H216487   1.768   2.435   4.092
 5489WAT      O16488   2.754   3.287   3.968
 5489WAT     H116489   2.692   3.333   3.911
 5489WAT     H216490   2.840   3.303   3.928
 5490WAT      O16491   2.673   2.886   4.129
 5490WAT     H116492   2.666   2.791   4.113
 5490WAT     H216493   2.750   2.895   4.186
 5491WAT      O16494   1.892   1.946   4.361
 5491WAT     H116495   1.874   1.856   4.389
 5491WAT     H216496   1.852   2.001   4.429
 5492WAT      O16497   2.776   2.166   4.151
 5492WAT     H116498   2.814   2.079   4.140
 5492WAT     H216499   2.767   2.200   4.062
 5493WAT      O16500   2.189   2.003   3.698
 5493WAT     H116501   2.200   2.094   3.728
 5493WAT     H216502   2.098   1.999   3.669
 5494WAT      O16503   3.155   1.916   3.845
 5494WAT     H116504   3.237   1.867   3.849
 5494WAT     H216505   3.158   1.975   3.920
 5495WAT      O16506   1.954   2.196   4.222
 5495WAT     H116507   2.022   2.222   4.284
 5495WAT     H216508   1.923   2.112   4.255
 5496WAT      O16509   2.374   2.300   4.131
 5496WAT     H116510   2.424   2.350   4.195
 5496WAT     H216511   2.427   2.223   4.113
 5497WAT      O16512   3.584   2.117   4.501
 5497WAT     H116513   3.513   2.156   4.449
 5497WAT     H216514   3.610   2.187   4.561
 5498WAT      O16515   2.202   1.764   4.557
 5498WAT     H116516   2.202   1.816   4.477
 5498WAT     H216517   2.119   1.717   4.555
 5499WAT      O16518   2.841   2.776   3.707
 5499WAT     H116519   2.779   2.822   3.651
 5499WAT     H216520   2.892   2.845   3.749
 5500WAT      O16521   2.327   2.728   4.375
 5500WAT     H116522   2.294   2.791   4.439
 5500WAT     H216523   2.345   2.781   4.297
 5501WAT      O16524   3.178   2.110   4.122
 5501WAT     H116525   3.108   2.139   4.180
 5501WAT     H216526   3.214   2.191   4.086
 5502WAT      O16527   2.170   1.935   4.358
 5502WAT     H116528   2.204   2.020   4.329
 5502WAT     H216529   2.076   1.950   4.370
 5503WAT      O16530   2.248   2.925   4.557
 5503WAT     H116531   2.310   2.993   4.529
 5503WAT     H216532   2.162   2.966   4.548
 5504WAT      O16533   1.777   2.844   3.445
 5504WAT     H116534   1.740   2.893   3.372
 5504WAT     H216535   1.803   2.911   3.508
 5505WAT      O16536   3.340   3.071   4.348
 5505WAT     H116537   3.272   3.138   4.347
 5505WAT     H216538   3.394   3.091   4.272
 5506WAT      O16539   3.485   2.054   4.161
 5506WAT     H116540   3.390   2.058   4.174
 5506WAT     H216541   3.518   2.136   4.200
 5507WAT      O16542   2.538   1.684   3.991
 5507WAT     H116543   2.569   1.629   3.919
 5507WAT     H216544   2.445   1.698   3.972
 5508WAT      O16545   3.093   3.256   4.220
 5508WAT     H116546   3.095   3.216   4.133
 5508WAT     H216547   3.038   3.333   4.209
 5509WAT      O16548   3.223   2.928   3.729
 5509WAT     H116549   3.212   2.834   3.741
 5509WAT     H216550   3.223   2.964   3.817
 5510WAT      O16551   3.033   2.746   4.352
 5510WAT     H116552   3.075   2.725   4.269
 5510WAT     H216553   3.106   2.772   4.410
 5511WAT      O16554   2.777   2.491   3.664
 5511WAT     H116555   2.684   2.484   3.687
 5511WAT     H216556   2.792   2.585   3.653
 5512WAT      O16557   2.776   2.118   3.364
 5512WAT     H116558   2.682   2.134   3.372
 5512WAT     H216559   2.808   2.190   3.309
 5513WAT      O16560   3.428   2.586   4.362
 5513WAT     H116561   3.345   2.593   4.314
 5513WAT     H216562   3.487   2.645   4.315
 5514WAT      O16563   3.180   2.647   3.715
 5514WAT     H116564   3.118   2.613   3.650
 5514WAT     H216565   3.178   2.583   3.785
 5515WAT      O16566   3.124   2.265   4.456
 5515WAT     H116567   3.083   2.347   4.482
 5515WAT     H216568   3.051   2.206   4.437
 5516WAT      O16569   2.338   2.543   3.942
 5516WAT     H116570   2.297   2.472   3.893
 5516WAT     H216571   2.346   2.509   4.031
 5517WAT      O16572   2.385   2.912   4.159
 5517WAT     H116573   2.355   2.852   4.091
 5517WAT     H216574   2.480   2.916   4.148
 5518WAT      O16575   2.209   2.221   4.320
 5518WAT     H116576   2.264   2.232   4.243
 5518WAT     H216577   2.260   2.258   4.392
 5519WAT      O16578   3.193   3.269   4.525
 5519WAT     H116579   3.146   3.350   4.506
 5519WAT     H216580   3.125   3.204   4.540
 5520WAT      O16581   2.294   2.886   4.824
 5520WAT     H116582   2.204   2.908   4.849
 5520WAT     H216583   2.296   2.898   4.729
 5521WAT      O16584   2.998   2.571   3.415
 5521WAT     H116585   3.042   2.487   3.401
 5521WAT     H216586   3.069   2.634   3.424
 5522WAT      O16587   2.176   2.573   4.681
 5522WAT     H116588   2.163   2.660   4.718
 5522WAT     H216589   2.088   2.539   4.667
 5523WAT      O16590   2.809   3.065   3.812
 5523WAT     H116591   2.853   3.139   3.771
 5523WAT     H216592   2.803   3.089   3.904
 5524WAT      O16593   2.356   3.167   4.902
 5524WAT     H116594   2.353   3.208   4.816
 5524WAT     H216595   2.340   3.074   4.886
 5525WAT      O16596   3.356   1.696   3.247
 5525WAT     H116597   3.325   1.705   3.337
 5525WAT     H216598   3.432   1.754   3.242
 5526WAT      O16599   2.008   2.433   3.692
 5526WAT     H116600   1.996   2.505   3.631
 5526WAT     H216601   1.977   2.356   3.645
 5527WAT      O16602   3.551   3.245   5.032
 5527WAT     H116603   3.599   3.293   5.100
 5527WAT     H216604   3.613   3.239   4.959
 5528WAT      O16605   1.772   2.750   4.273
 5528WAT     H116606   1.779   2.763   4.179
 5528WAT     H216607   1.833   2.679   4.292
 5529WAT      O16608   1.896   2.920   3.914
 5529WAT     H116609   1.855   2.934   3.829
 5529WAT     H216610   1.985   2.892   3.894
 5530WAT      O16611   3.492   2.965   4.748
 5530WAT     H116612   3.504   2.941   4.656
 5530WAT     H216613   3.496   2.881   4.795
 5531WAT      O16614   2.878   3.335   4.605
 5531WAT     H116615   2.929   3.326   4.685
 5531WAT     H216616   2.794   3.369   4.634
 5532WAT      O16617   3.075   3.363   3.548
 5532WAT     H116618   3.059   3.334   3.638
 5532WAT     H216619   3.059   3.286   3.494
 5533WAT      O16620   2.323   3.341   3.725
 5533WAT     H116621   2.306   3.250   3.704
 5533WAT     H216622   2.238   3.377   3.749
 5534WAT      O16623   3.046   3.114   3.404
 5534WAT     H116624   2.976   3.114   3.338
 5534WAT     H216625   3.120   3.072   3.361
 5535WAT      O16626   3.002   3.277   3.811
 5535WAT     H116627   3.048   3.199   3.843
 5535WAT     H216628   3.036   3.348   3.866
 5536WAT      O16629   3.477   2.170   4.844
 5536WAT     H116630   3.415   2.221   4.792
 5536WAT     H216631   3.445   2.080   4.839
 5537WAT      O16632   1.777   2.854   4.527
 5537WAT     H116633   1.794   2.807   4.445
 5537WAT     H216634   1.824   2.803   4.594
 5538WAT      O16635   2.254   1.767   4.031
 5538WAT     H116636   2.210   1.845   3.998
 5538WAT     H216637   2.310   1.799   4.101
 5539WAT      O16638   2.683   2.054   4.591
 5539WAT     H116639   2.637   2.075   4.672
 5539WAT     H216640   2.643   1.972   4.561
 5540WAT      O16641   3.183   2.176   4.704
 5540WAT     H116642   3.098   2.146   4.736
 5540WAT     H216643   3.167   2.200   4.613
 5541WAT      O16644   2.893   2.326   4.914
 5541WAT     H116645   2.925   2.243   4.880
 5541WAT     H216646   2.971   2.378   4.929
 5542WAT      O16647   2.566   1.729   3.519
 5542WAT     H116648   2.504   1.729   3.591
 5542WAT     H216649   2.557   1.643   3.479
 5543WAT      O16650   2.458   1.822   4.217
 5543WAT     H116651   2.488   1.912   4.209
 5543WAT     H216652   2.513   1.773   4.155
 5544WAT      O16653   2.234   2.280   3.804
 5544WAT     H116654   2.211   2.258   3.894
 5544WAT     H216655   2.155   2.323   3.769
 5545WAT      O16656   2.957   2.280   3.663
 5545WAT     H116657   2.897   2.353   3.645
 5545WAT     H216658   3.011   2.274   3.585
 5546WAT      O16659   2.478   2.369   4.870
 5546WAT     H116660   2.468   2.275   4.855
 5546WAT     H216661   2.562   2.392   4.831
 5547WAT      O16662   2.817   2.144   3.866
 5547WAT     H116663   2.856   2.175   3.785
 5547WAT     H216664   2.853   2.056   3.878
 5548WAT      O16665   1.991   2.011   4.685
 5548WAT     H116666   1.951   2.095   4.706
 5548WAT     H216667   1.922   1.947   4.705
 5549WAT      O16668   2.648   2.019   4.992
 5549WAT     H116669   2.579   2.000   5.056
 5549WAT     H216670   2.722   2.047   5.046
 5550WAT      O16671   1.721   1.803   4.089
 5550WAT     H116672   1.692   1.860   4.160
 5550WAT     H216673   1.795   1.755   4.125
 5551WAT      O16674   1.740   2.197   3.210
 5551WAT     H116675   1.731   2.291   3.224
 5551WAT     H216676   1.704   2.183   3.122
 5552WAT      O16677   2.876   2.403   4.276
 5552WAT     H116678   2.803   2.454   4.311
 5552WAT     H216679   2.836   2.321   4.246
 5553WAT      O16680   2.519   2.070   4.116
 5553WAT     H116681   2.520   2.026   4.032
 5553WAT     H216682   2.609   2.103   4.127
 5554WAT      O16683   2.105   2.059   4.012
 5554WAT     H116684   2.071   2.106   4.088
 5554WAT     H216685   2.028   2.013   3.976
 5555WAT      O16686   2.526   2.170   3.416
 5555WAT     H116687   2.538   2.166   3.510
 5555WAT     H216688   2.487   2.257   3.400
 5556WAT      O16689   2.922   1.948   4.217
 5556WAT     H116690   2.924   1.993   4.302
 5556WAT     H216691   2.897   1.858   4.239
 5557WAT      O16692   2.427   2.402   3.355
 5557WAT     H116693   2.370   2.357   3.293
 5557WAT     H216694   2.498   2.437   3.302
 5558WAT      O16695   3.265   1.689   4.801
 5558WAT     H116696   3.297   1.616   4.854
 5558WAT     H216697   3.268   1.658   4.711
 5559WAT      O16698   1.935   2.792   4.743
 5559WAT     H116699   1.896   2.728   4.803
 5559WAT     H216700   1.966   2.862   4.800
 5560WAT      O16701   2.550   2.476   4.291
 5560WAT     H116702   2.586   2.429   4.366
 5560WAT     H216703   2.531   2.564   4.325
 5561WAT      O16704   1.836   1.951   3.904
 5561WAT     H116705   1.807   1.914   3.988
 5561WAT     H216706   1.830   1.878   3.843
 5562WAT      O16707   2.329   2.380   4.523
 5562WAT     H116708   2.298   2.468   4.545
 5562WAT     H216709   2.424   2.386   4.527
 5563WAT      O16710   2.181   2.801   3.583
 5563WAT     H116711   2.104   2.747   3.567
 5563WAT     H216712   2.254   2.749   3.549
 5564WAT      O16713   3.257   2.701   4.162
 5564WAT     H116714   3.329   2.750   4.123
 5564WAT     H216715   3.237   2.633   4.097
 5565WAT      O16716   2.803   1.840   3.576
 5565WAT     H116717   2.722   1.790   3.569
 5565WAT     H216718   2.784   1.924   3.535
 5566WAT      O16719   2.795   2.708   4.751
 5566WAT     H116720   2.789   2.616   4.725
 5566WAT     H216721   2.732   2.718   4.822
 5567WAT      O16722   3.075   2.277   3.406
 5567WAT     H116723   3.164   2.308   3.388
 5567WAT     H216724   3.072   2.190   3.367
 5568WAT      O16725   2.186   2.768   3.946
 5568WAT     H116726   2.238   2.688   3.941
 5568WAT     H216727   2.141   2.762   4.031
 5569WAT      O16728   2.674   2.895   3.474
 5569WAT     H116729   2.709   2.969   3.424
 5569WAT     H216730   2.592   2.926   3.510
 5570WAT      O16731   1.934   2.465   4.638
 5570WAT     H116732   1.898   2.531   4.696
 5570WAT     H216733   1.905   2.381   4.675
 5571WAT      O16734   2.254   2.510   4.926
 5571WAT     H116735   2.224   2.525   4.836
 5571WAT     H216736   2.331   2.454   4.917
 5572WAT      O16737   2.789   2.990   4.726
 5572WAT     H116738   2.790   2.897   4.704
 5572WAT     H216739   2.718   2.999   4.790
 5573WAT      O16740   3.302   2.408   3.353
 5573WAT     H116741   3.294   2.452   3.268
 5573WAT     H216742   3.374   2.454   3.396
 5574WAT      O16743   3.410   2.654   4.660
 5574WAT     H116744   3.337   2.713   4.641
 5574WAT     H216745   3.462   2.653   4.580
 5575WAT      O16746   3.405   3.094   3.625
 5575WAT     H116747   3.341   3.028   3.653
 5575WAT     H216748   3.366   3.134   3.548
 5576WAT      O16749   2.963   2.827   4.010
 5576WAT     H116750   2.998   2.767   3.944
 5576WAT     H216751   2.874   2.794   4.027
 5577WAT      O16752   2.571   2.903   3.751
 5577WAT     H116753   2.640   2.957   3.789
 5577WAT     H216754   2.493   2.957   3.754
 5578WAT      O16755   1.785   2.464   3.300
 5578WAT     H116756   1.872   2.493   3.328
 5578WAT     H216757   1.736   2.546   3.289
 5579WAT      O16758   2.502   2.603   3.712
 5579WAT     H116759   2.547   2.684   3.735
 5579WAT     H216760   2.467   2.571   3.795
 5580WAT      O16761   2.732   3.154   4.435
 5580WAT     H116762   2.796   3.175   4.503
 5580WAT     H216763   2.768   3.078   4.390
 5581WAT      O16764   2.092   1.638   3.759
 5581WAT     H116765   2.079   1.637   3.854
 5581WAT     H216766   2.009   1.671   3.724
 5582WAT      O16767   2.859   2.955   4.307
 5582WAT     H116768   2.923   2.884   4.318
 5582WAT     H216769   2.912   3.033   4.289
 5583WAT      O16770   3.037   3.034   4.627
 5583WAT     H116771   3.070   3.093   4.695
 5583WAT     H216772   2.945   3.021   4.650
 5584WAT      O16773   1.822   3.386   3.357
 5584WAT     H116774   1.858   3.446   3.291
 5584WAT     H216775   1.808   3.440   3.434
 5585WAT      O16776   1.792   1.813   4.705
 5585WAT     H116777   1.720   1.833   4.766
 5585WAT     H216778   1.834   1.736   4.743
 5586WAT      O16779   3.202   2.775   3.445
 5586WAT     H116780   3.173   2.821   3.524
 5586WAT     H216781   3.282   2.729   3.472
 5587WAT      O16782   1.820   3.212   4.804
 5587WAT     H116783   1.831   3.118   4.790
 5587WAT     H216784   1.755   3.239   4.739
 5588WAT      O16785   2.620   3.039   4.944
 5588WAT     H116786   2.588   2.967   4.999
 5588WAT     H216787   2.552   3.107   4.951
 5589WAT      O16788   2.424   3.124   3.438
 5589WAT     H116789   2.423   3.197   3.377
 5589WAT     H216790   2.332   3.099   3.448
 5590WAT      O16791   1.984   2.646   3.513
 5590WAT     H116792   1.923   2.720   3.514
 5590WAT     H216793   2.031   2.655   3.430
 5591WAT      O16794   2.941   2.063   4.480
 5591WAT     H116795   2.978   1.981   4.513
 5591WAT     H216796   2.855   2.069   4.522
 5592WAT      O16797   3.278   1.958   3.561
 5592WAT     H116798   3.215   1.969   3.490
 5592WAT     H216799   3.228   1.980   3.640
 5593WAT      O16800   2.722   3.130   3.305
 5593WAT     H116801   2.732   3.110   3.212
 5593WAT     H216802   2.632   3.105   3.325
 5594WAT      O16803   2.475   2.186   3.703
 5594WAT     H116804   2.404   2.233   3.747
 5594WAT     H216805   2.503   2.120   3.766
 5595WAT      O16806   2.637   2.328   4.503
 5595WAT     H116807   2.687   2.376   4.569
 5595WAT     H216808   2.651   2.236   4.524
 5596WAT      O16809   2.878   1.859   3.847
 5596WAT     H116810   2.865   1.860   3.752
 5596WAT     H216811   2.973   1.863   3.859
 5597WAT      O16812   2.586   3.382   3.774
 5597WAT     H116813   2.612   3.378   3.682
 5597WAT     H216814   2.492   3.369   3.773
 5598WAT      O16815   2.295   2.017   3.440
 5598WAT     H116816   2.380   2.061   3.434
 5598WAT     H216817   2.258   2.048   3.523
 5599WAT      O16818   3.358   1.950   4.587
 5599WAT     H116819   3.307   2.024   4.621
 5599WAT     H216820   3.439   1.989   4.555
 5600WAT      O16821   3.187   2.474   3.932
 5600WAT     H116822   3.093   2.476   3.949
 5600WAT     H216823   3.218   2.395   3.976
 5601WAT      O16824   2.185   2.642   3.288
 5601WAT     H116825   2.261   2.631   3.344
 5601WAT     H216826   2.193   2.573   3.223
 5602WAT      O16827   2.054   2.386   3.356
 5602WAT     H116828   2.062   2.291   3.367
 5602WAT     H216829   2.143   2.419   3.367
 5603WAT      O16830   3.387   3.191   4.099
 5603WAT     H116831   3.400   3.273   4.146
 5603WAT     H216832   3.474   3.170   4.064
 5604WAT      O16833   2.134   3.400   4.066
 5604WAT     H116834   2.208   3.346   4.093
 5604WAT     H216835   2.173   3.487   4.052
 5605WAT      O16836   1.823   3.007   3.654
 5605WAT     H116837   1.730   3.031   3.653
 5605WAT     H216838   1.869   3.090   3.642
 5606WAT      O16839   2.035   3.319   4.985
 5606WAT     H116840   2.115   3.351   5.027
 5606WAT     H216841   1.984   3.283   5.057
 5607WAT      O16842   2.445   3.318   3.249
 5607WAT     H116843   2.525   3.347   3.203
 5607WAT     H216844   2.393   3.275   3.181
 5608WAT      O16845   2.919   2.930   4.980
 5608WAT     H116846   2.858   2.932   4.906
 5608WAT     H216847   2.888   2.857   5.034
 5609WAT      O16848   3.062   3.303   4.841
 5609WAT     H116849   3.157   3.294   4.836
 5609WAT     H216850   3.047   3.369   4.908
 5610WAT      O16851   1.807   2.568   4.880
 5610WAT     H116852   1.857   2.510   4.937
 5610WAT     H216853   1.733   2.596   4.933
 5611WAT      O16854   2.497   2.840   3.235
 5611WAT     H116855   2.487   2.778   3.308
 5611WAT     H216856   2.480   2.787   3.157
 5612WAT      O16857   2.512   2.708   4.833
 5612WAT     H116858   2.436   2.765   4.825
 5612WAT     H216859   2.531   2.679   4.744
 5613WAT      O16860   2.821   2.746   3.296
 5613WAT     H116861   2.766   2.791   3.360
 5613WAT     H216862   2.883   2.696   3.348
 5614WAT      O16863   3.227   2.881   4.889
 5614WAT     H116864   3.301   2.915   4.838
 5614WAT     H216865   3.150   2.898   4.833
 5615WAT      O16866   2.010   2.382   4.969
 5615WAT     H116867   2.014   2.352   5.060
 5615WAT     H216868   2.096   2.422   4.953
 5616WAT      O16869   2.388   2.642   3.485
 5616WAT     H116870   2.430   2.625   3.569
 5616WAT     H216871   2.400   2.561   3.436
 5617WAT      O16872   2.204   2.240   4.766
 5617WAT     H116873   2.151   2.191   4.703
 5617WAT     H216874   2.271   2.283   4.712
 5618WAT      O16875   2.639   2.544   3.210
 5618WAT     H116876   2.691   2.473   3.173
 5618WAT     H216877   2.704   2.608   3.240
 5619WAT      O16878   3.094   2.687   4.742
 5619WAT     H116879   3.135   2.702   4.827
 5619WAT     H216880   3.001   2.699   4.759
 5620WAT      O16881   3.141   2.421   4.943
 5620WAT     H116882   3.199   2.345   4.934
 5620WAT     H216883   3.159   2.474   4.865
 5621WAT      O16884   2.253   1.937   4.774
 5621WAT     H116885   2.244   1.875   4.701
 5621WAT     H216886   2.195   2.009   4.751
 5622WAT      O16887   2.530   1.792   4.477
 5622WAT     H116888   2.485   1.794   4.393
 5622WAT     H216889   2.466   1.752   4.537
 5623WAT      O16890   2.570   2.682   4.539
 5623WAT     H116891   2.612   2.766   4.522
 5623WAT     H216892   2.478   2.696   4.516
 5624WAT      O16893   2.804   2.455   4.678
 5624WAT     H116894   2.816   2.395   4.752
 5624WAT     H216895   2.890   2.459   4.636
 5625WAT      O16896   3.038   2.510   4.535
 5625WAT     H116897   2.985   2.563   4.475
 5625WAT     H216898   3.072   2.574   4.598
 5626WAT      O16899   2.278   2.249   3.180
 5626WAT     H116900   2.257   2.163   3.216
 5626WAT     H216901   2.260   2.241   3.086
 5627WAT      O16902   2.355   3.312   4.651
 5627WAT     H116903   2.301   3.385   4.619
 5627WAT     H216904   2.381   3.265   4.572
 5628WAT      O16905   2.481   2.109   4.803
 5628WAT     H116906   2.540   2.078   4.872
 5628WAT     H216907   2.399   2.062   4.819
 5629WAT      O16908   2.962   2.071   4.827
 5629WAT     H116909   2.894   2.005   4.820
 5629WAT     H216910   3.035   2.026   4.871
 5630WAT      O16911   3.025   1.730   3.433
 5630WAT     H116912   3.053   1.646   3.468
 5630WAT     H216913   2.948   1.754   3.484
 5631WAT      O16914   2.157   1.959   3.179
 5631WAT     H116915   2.188   1.960   3.088
 5631WAT     H216916   2.231   1.924   3.228
 5632WAT      O16917   2.641   3.436   4.677
 5632WAT     H116918   2.633   3.526   4.707
 5632WAT     H216919   2.551   3.404   4.674
 5633WAT      O16920   2.479   1.854   3.277
 5633WAT     H116921   2.444   1.786   3.219
 5633WAT     H216922   2.499   1.807   3.359
 5634WAT      O16923   2.696   3.352   3.439
 5634WAT     H116924   2.785   3.386   3.441
 5634WAT     H216925   2.699   3.280   3.376
 5635WAT      O16926   2.060   2.890   3.262
 5635WAT     H116927   2.103   2.944   3.327
 5635WAT     H216928   2.108   2.807   3.263
 5636WAT      O16929   1.781   3.169   4.007
 5636WAT     H116930   1.814   3.082   3.984
 5636WAT     H216931   1.824   3.189   4.090
 5637WAT      O16932   2.241   3.002   3.773
 5637WAT     H116933   2.211   2.989   3.863
 5637WAT     H216934   2.230   2.916   3.732
 5638WAT      O16935   1.830   3.255   4.281
 5638WAT     H116936   1.786   3.273   4.364
 5638WAT     H216937   1.887   3.331   4.267
 5639WAT      O16938   3.394   3.205   4.710
 5639WAT     H116939   3.334   3.211   4.635
 5639WAT     H216940   3.407   3.111   4.723
 5640WAT      O16941   3.463   2.654   3.494
 5640WAT     H116942   3.539   2.711   3.504
 5640WAT     H216943   3.465   2.597   3.571
 5641WAT      O16944   1.813   2.506   3.917
 5641WAT     H116945   1.748   2.480   3.852
 5641WAT     H216946   1.897   2.496   3.872
 5642WAT      O16947   3.564   2.740   3.978
 5642WAT     H116948   3.601   2.661   3.937
 5642WAT     H216949   3.628   2.808   3.960
 5643WAT      O16950   3.262   2.878   4.519
 5643WAT     H116951   3.181   2.921   4.546
 5643WAT     H216952   3.303   2.939   4.458
 5644WAT      O16953   3.468   2.683   3.209
 5644WAT     H116954   3.496   2.774   3.197
 5644WAT     H216955   3.450   2.677   3.303
 5645WAT      O16956   3.108   1.986   3.339
 5645WAT     H116957   3.150   1.967   3.255
 5645WAT     H216958   3.078   1.901   3.370
 5646WAT      O16959   3.458   2.477   3.709
 5646WAT     H116960   3.421   2.400   3.665
 5646WAT     H216961   3.385   2.515   3.757
 5647WAT      O16962   1.917   2.545   4.371
 5647WAT     H116963   1.954   2.536   4.459
 5647WAT     H216964   1.860   2.469   4.361
 5648WAT      O16965   3.397   2.392   4.672
 5648WAT     H116966   3.374   2.369   4.582
 5648WAT     H216967   3.423   2.484   4.668
 5649WAT      O16968   1.872   2.236   4.761
 5649WAT     H116969   1.783   2.233   4.795
 5649WAT     H216970   1.926   2.256   4.838
 5650WAT      O16971   3.241   1.914   4.950
 5650WAT     H116972   3.329   1.915   4.988
 5650WAT     H216973   3.242   1.841   4.889
 5651WAT      O16974   1.735   2.227   3.511
 5651WAT     H116975   1.644   2.254   3.494
 5651WAT     H216976   1.783   2.255   3.433
 5652WAT      O16977   3.386   2.300   4.039
 5652WAT     H116978   3.438   2.250   3.976
 5652WAT     H216979   3.444   2.313   4.113
 5653WAT      O16980   3.404   2.308   4.391
 5653WAT     H116981   3.309   2.305   4.402
 5653WAT     H216982   3.422   2.399   4.367
 5654WAT      O16983   1.989   2.133   3.302
 5654WAT     H116984   2.060   2.091   3.253
 5654WAT     H216985   1.917   2.140   3.239
 5655WAT      O16986   1.954   1.739   3.206
 5655WAT     H116987   2.026   1.793   3.238
 5655WAT     H216988   1.981   1.711   3.118
 5656WAT      O16989   3.335   2.225   3.633
 5656WAT     H116990   3.384   2.202   3.711
 5656WAT     H216991   3.315   2.142   3.591
 5657WAT      O16992   1.923   1.664   4.196
 5657WAT     H116993   1.987   1.609   4.152
 5657WAT     H216994   1.965   1.689   4.278
 5658WAT      O16995   3.477   2.089   3.886
 5658WAT     H116996   3.466   2.074   3.980
 5658WAT     H216997   3.554   2.036   3.862
 5659WAT      O16998   3.312   1.683   4.532
 5659WAT     H116999   3.376   1.744   4.568
 5659WAT     H217000   3.327   1.687   4.437
 5660WAT      O17001   3.566   1.872   3.210
 5660WAT     H117002   3.659   1.859   3.189
 5660WAT     H217003   3.564   1.880   3.305
 5661WAT      O17004   3.574   1.949   3.473
 5661WAT     H117005   3.494   1.943   3.526
 5661WAT     H217006   3.594   2.043   3.472
 5662WAT      O17007   3.268   3.353   3.872
 5662WAT     H117008   3.328   3.321   3.804
 5662WAT     H217009   3.294   3.306   3.951
 5663WAT      O17010   1.898   1.679   4.470
 5663WAT     H117011   1.863   1.725   4.547
 5663WAT     H217012   1.865   1.590   4.479
 5664WAT      O17013   2.059   2.996   4.887
 5664WAT     H117014   2.054   2.959   4.975
 5664WAT     H217015   2.072   3.090   4.901
 5665WAT      O17016   2.429   3.152   4.447
 5665WAT     H117017   2.405   3.179   4.358
 5665WAT     H217018   2.523   3.169   4.453
 5666WAT      O17019   2.649   1.798   4.823
 5666WAT     H117020   2.643   1.857   4.898
 5666WAT     H217021   2.743   1.788   4.808
 5667WAT      O17022   2.913   1.764   4.787
 5667WAT     H117023   2.974   1.796   4.720
 5667WAT     H217024   2.967   1.715   4.849
 5668WAT      O17025   3.555   3.354   4.527
 5668WAT     H117026   3.505   3.394   4.455
 5668WAT     H217027   3.494   3.291   4.567
 5669WAT      O17028   1.965   1.632   4.798
 5669WAT     H117029   2.020   1.614   4.722
 5669WAT     H217030   1.972   1.553   4.852
 5670WAT      O17031   2.042   3.291   4.599
 5670WAT     H117032   1.983   3.278   4.673
 5670WAT     H217033   2.042   3.207   4.552
 5671WAT      O17034   2.987   1.620   4.419
 5671WAT     H117035   2.900   1.654   4.399
 5671WAT     H217036   2.976   1.573   4.502
 5672WAT      O17037   3.078   1.841   4.558
 5672WAT     H117038   3.045   1.760   4.520
 5672WAT     H217039   3.173   1.837   4.545
 5673WAT      O17040   3.323   3.418   4.255
 5673WAT     H117041   3.277   3.493   4.218
 5673WAT     H217042   3.260   3.346   4.249
 5674WAT      O17043   2.006   3.028   4.494
 5674WAT     H117044   1.933   2.966   4.487
 5674WAT     H217045   2.012   3.067   4.407
 5675WAT      O17046   2.366   3.249   4.173
 5675WAT     H117047   2.418   3.188   4.120
 5675WAT     H217048   2.431   3.299   4.222
 5676WAT      O17049   2.640   3.338   4.255
 5676WAT     H117050   2.669   3.313   4.168
 5676WAT     H217051   2.691   3.283   4.314
 5677WAT      O17052   2.762   1.712   4.313
 5677WAT     H117053   2.683   1.759   4.341
 5677WAT     H217054   2.732   1.622   4.302
 5678WAT      O17055   3.217   1.782   4.118
 5678WAT     H117056   3.261   1.777   4.033
 5678WAT     H217057   3.190   1.874   4.125
 5679WAT      O17058   3.403   1.745   3.919
 5679WAT     H117059   3.397   1.651   3.904
 5679WAT     H217060   3.481   1.756   3.973
 5680WAT      O17061   1.834   3.359   3.815
 5680WAT     H117062   1.817   3.296   3.885
 5680WAT     H217063   1.747   3.380   3.780
 5681WAT      O17064   1.896   1.742   3.565
 5681WAT     H117065   1.972   1.754   3.508
 5681WAT     H217066   1.850   1.826   3.561
 5682WAT      O17067   2.550   1.954   3.864
 5682WAT     H117068   2.469   1.916   3.830
 5682WAT     H217069   2.601   1.878   3.895
 5683WAT      O17070   3.001   1.620   3.988
 5683WAT     H117071   3.061   1.677   4.036
 5683WAT     H217072   2.926   1.677   3.966
 5684WAT      O17073   3.315   1.660   3.516
 5684WAT     H117074   3.334   1.750   3.542
 5684WAT     H217075   3.236   1.637   3.565
 5685WAT      O17076   1.995   3.229   3.559
 5685WAT     H117077   1.942   3.267   3.489
 5685WAT     H217078   1.987   3.291   3.632
 5686WAT      O17079   2.133   1.795   3.419
 5686WAT     H117080   2.186   1.716   3.406
 5686WAT     H217081   2.197   1.863   3.443
 5687WAT      O17082   2.353   1.769   3.725
 5687WAT     H117083   2.290   1.699   3.741
 5687WAT     H217084   2.299   1.845   3.703
 5688WAT      O17085   2.647   3.430   4.992
 5688WAT     H117086   2.739   3.407   4.996
 5688WAT     H217087   2.645   3.513   4.944
 5689WAT      O17088   3.470   3.384   3.692
 5689WAT     H117089   3.488   3.316   3.627
 5689WAT     H217090   3.400   3.437   3.652
 5690WAT      O17091   2.365   1.697   4.968
 5690WAT     H117092   2.337   1.747   4.892
 5690WAT     H217093   2.404   1.617   4.932
 5691WAT      O17094   2.254   3.423   3.447
 5691WAT     H117095   2.328   3.395   3.392
 5691WAT     H217096   2.280   3.400   3.536
 5692WAT      O17097   2.171   3.035   3.447
 5692WAT     H117098   2.108   3.082   3.502
 5692WAT     H217099   2.182   2.951   3.491
 5693WAT      O17100   3.026   1.638   5.026
 5693WAT     H117101   3.014   1.670   5.116
 5693WAT     H217102   3.107   1.678   4.996
 5694WAT      O17103   3.303   3.353   4.974
 5694WAT     H117104   3.383   3.303   4.954
 5694WAT     H217105   3.333   3.421   5.035
 5695WAT      O17106   2.916   2.440   2.062
 5695WAT     H117107   2.908   2.349   2.035
 5695WAT     H217108   2.875   2.490   1.992
 5696WAT      O17109   2.729   2.618   2.251
 5696WAT     H117110   2.652   2.570   2.280
 5696WAT     H217111   2.794   2.550   2.233
 5697WAT      O17112   2.131   2.649   2.338
 5697WAT     H117113   2.048   2.624   2.378
 5697WAT     H217114   2.192   2.656   2.412
 5698WAT      O17115   3.131   3.059   2.129
 5698WAT     H117116   3.085   2.981   2.161
 5698WAT     H217117   3.213   3.061   2.179
 5699WAT      O17118   2.129   3.053   2.358
 5699WAT     H117119   2.159   2.964   2.340
 5699WAT     H217120   2.203   3.108   2.335
 5700WAT      O17121   1.972   2.145   1.717
 5700WAT     H117122   1.883   2.179   1.707
 5700WAT     H217123   2.000   2.125   1.628
 5701WAT      O17124   1.768   2.405   2.305
 5701WAT     H117125   1.825   2.328   2.305
 5701WAT     H217126   1.768   2.435   2.214
 5702WAT      O17127   2.754   3.287   2.091
 5702WAT     H117128   2.692   3.333   2.034
 5702WAT     H217129   2.840   3.303   2.050
 5703WAT      O17130   2.673   2.886   2.251
 5703WAT     H117131   2.666   2.791   2.235
 5703WAT     H217132   2.750   2.895   2.308
 5704WAT      O17133   1.892   1.946   2.484
 5704WAT     H117134   1.874   1.856   2.512
 5704WAT     H217135   1.852   2.001   2.551
 5705WAT      O17136   2.776   2.166   2.274
 5705WAT     H117137   2.814   2.079   2.263
 5705WAT     H217138   2.767   2.200   2.185
 5706WAT      O17139   2.189   2.003   1.820
 5706WAT     H117140   2.200   2.094   1.851
 5706WAT     H217141   2.098   1.999   1.791
 5707WAT      O17142   3.155   1.916   1.967
 5707WAT     H117143   3.237   1.867   1.971
 5707WAT     H217144   3.158   1.975   2.043
 5708WAT      O17145   1.954   2.196   2.345
 5708WAT     H117146   2.022   2.222   2.407
 5708WAT     H217147   1.923   2.112   2.378
 5709WAT      O17148   2.374   2.300   2.253
 5709WAT     H117149   2.424   2.350   2.317
 5709WAT     H217150   2.427   2.223   2.236
 5710WAT      O17151   3.584   2.117   2.624
 5710WAT     H117152   3.513   2.156   2.572
 5710WAT     H217153   3.610   2.187   2.684
 5711WAT      O17154   2.202   1.764   2.680
 5711WAT     H117155   2.202   1.816   2.599
 5711WAT     H217156   2.119   1.717   2.678
 5712WAT      O17157   2.841   2.776   1.830
 5712WAT     H117158   2.779   2.822   1.774
 5712WAT     H217159   2.892   2.845   1.872
 5713WAT      O17160   2.327   2.728   2.498
 5713WAT     H117161   2.294   2.791   2.562
 5713WAT     H217162   2.345   2.781   2.420
 5714WAT      O17163   3.178   2.110   2.245
 5714WAT     H117164   3.108   2.139   2.303
 5714WAT     H217165   3.214   2.191   2.208
 5715WAT      O17166   2.170   1.935   2.481
 5715WAT     H117167   2.204   2.020   2.451
 5715WAT     H217168   2.076   1.950   2.492
 5716WAT      O17169   2.248   2.925   2.679
 5716WAT     H117170   2.310   2.993   2.651
 5716WAT     H217171   2.162   2.966   2.670
 5717WAT      O17172   1.777   2.844   1.567
 5717WAT     H117173   1.740   2.893   1.494
 5717WAT     H217174   1.803   2.911   1.630
 5718WAT      O17175   3.340   3.071   2.471
 5718WAT     H117176   3.272   3.138   2.470
 5718WAT     H217177   3.394   3.091   2.394
 5719WAT      O17178   3.485   2.054   2.284
 5719WAT     H117179   3.390   2.058   2.297
 5719WAT     H217180   3.518   2.136   2.322
 5720WAT      O17181   2.538   1.684   2.113
 5720WAT     H117182   2.569   1.629   2.042
 5720WAT     H217183   2.445   1.698   2.095
 5721WAT      O17184   3.093   3.256   2.342
 5721WAT     H117185   3.095   3.216   2.255
 5721WAT     H217186   3.038   3.333   2.332
 5722WAT      O17187   3.223   2.928   1.851
 5722WAT     H117188   3.212   2.834   1.864
 5722WAT     H217189   3.223   2.964   1.940
 5723WAT      O17190   3.033   2.746   2.475
 5723WAT     H117191   3.075   2.725   2.392
 5723WAT     H217192   3.106   2.772   2.532
 5724WAT      O17193   2.777   2.491   1.787
 5724WAT     H117194   2.684   2.484   1.810
 5724WAT     H217195   2.792   2.585   1.775
 5725WAT      O17196   2.776   2.118   1.486
 5725WAT     H117197   2.682   2.134   1.495
 5725WAT     H217198   2.808   2.190   1.432
 5726WAT      O17199   3.428   2.586   2.484
 5726WAT     H117200   3.345   2.593   2.437
 5726WAT     H217201   3.487   2.645   2.437
 5727WAT      O17202   3.180   2.647   1.837
 5727WAT     H117203   3.118   2.613   1.772
 5727WAT     H217204   3.178   2.583   1.908
 5728WAT      O17205   3.124   2.265   2.579
 5728WAT     H117206   3.083   2.347   2.604
 5728WAT     H217207   3.051   2.206   2.560
 5729WAT      O17208   2.338   2.543   2.065
 5729WAT     H117209   2.297   2.472   2.015
 5729WAT     H217210   2.346   2.509   2.154
 5730WAT      O17211   2.385   2.912   2.281
 5730WAT     H117212   2.355   2.852   2.213
 5730WAT     H217213   2.480   2.916   2.270
 5731WAT      O17214   2.209   2.221   2.443
 5731WAT     H117215   2.264   2.232   2.365
 5731WAT     H217216   2.260   2.258   2.514
 5732WAT      O17217   3.193   3.269   2.648
 5732WAT     H117218   3.146   3.350   2.628
 5732WAT     H217219   3.125   3.204   2.663
 5733WAT      O17220   2.294   2.886   2.946
 5733WAT     H117221   2.204   2.908   2.971
 5733WAT     H217222   2.296   2.898   2.852
 5734WAT      O17223   2.998   2.571   1.538
 5734WAT     H117224   3.042   2.487   1.523
 5734WAT     H217225   3.069   2.634   1.546
 5735WAT      O17226   2.176   2.573   2.804
 5735WAT     H117227   2.163   2.660   2.841
 5735WAT     H217228   2.088   2.539   2.789
 5736WAT      O17229   2.809   3.065   1.935
 5736WAT     H117230   2.853   3.139   1.893
 5736WAT     H217231   2.803   3.089   2.027
 5737WAT      O17232   2.356   3.167   3.025
 5737WAT     H117233   2.353   3.208   2.938
 5737WAT     H217234   2.340   3.074   3.009
 5738WAT      O17235   3.356   1.696   1.369
 5738WAT     H117236   3.325   1.705   1.459
 5738WAT     H217237   3.432   1.754   1.364
 5739WAT      O17238   2.008   2.433   1.815
 5739WAT     H117239   1.996   2.505   1.754
 5739WAT     H217240   1.977   2.356   1.767
 5740WAT      O17241   1.772   2.750   2.396
 5740WAT     H117242   1.779   2.763   2.301
 5740WAT     H217243   1.833   2.679   2.415
 5741WAT      O17244   1.896   2.920   2.037
 5741WAT     H117245   1.855   2.934   1.951
 5741WAT     H217246   1.985   2.892   2.016
 5742WAT      O17247   3.492   2.965   2.870
 5742WAT     H117248   3.504   2.941   2.779
 5742WAT     H217249   3.496   2.881   2.918
 5743WAT      O17250   2.878   3.335   2.727
 5743WAT     H117251   2.929   3.326   2.808
 5743WAT     H217252   2.794   3.369   2.757
 5744WAT      O17253   3.075   3.363   1.670
 5744WAT     H117254   3.059   3.334   1.760
 5744WAT     H217255   3.059   3.286   1.617
 5745WAT      O17256   2.323   3.341   1.848
 5745WAT     H117257   2.306   3.250   1.827
 5745WAT     H217258   2.238   3.377   1.872
 5746WAT      O17259   3.046   3.114   1.526
 5746WAT     H117260   2.976   3.114   1.460
 5746WAT     H217261   3.120   3.072   1.483
 5747WAT      O17262   3.002   3.277   1.934
 5747WAT     H117263   3.048   3.199   1.965
 5747WAT     H217264   3.036   3.348   1.988
 5748WAT      O17265   3.477   2.170   2.967
 5748WAT     H117266   3.415   2.221   2.914
 5748WAT     H217267   3.445   2.080   2.961
 5749WAT      O17268   1.777   2.854   2.650
 5749WAT     H117269   1.794   2.807   2.568
 5749WAT     H217270   1.824   2.803   2.716
 5750WAT      O17271   2.254   1.767   2.153
 5750WAT     H117272   2.210   1.845   2.120
 5750WAT     H217273   2.310   1.799   2.224
 5751WAT      O17274   2.683   2.054   2.714
 5751WAT     H117275   2.637   2.075   2.795
 5751WAT     H217276   2.643   1.972   2.683
 5752WAT      O17277   3.183   2.176   2.827
 5752WAT     H117278   3.098   2.146   2.859
 5752WAT     H217279   3.167   2.200   2.735
 5753WAT      O17280   2.893   2.326   3.037
 5753WAT     H117281   2.925   2.243   3.003
 5753WAT     H217282   2.971   2.378   3.051
 5754WAT      O17283   2.566   1.729   1.641
 5754WAT     H117284   2.504   1.729   1.714
 5754WAT     H217285   2.557   1.643   1.602
 5755WAT      O17286   2.458   1.822   2.339
 5755WAT     H117287   2.488   1.912   2.331
 5755WAT     H217288   2.513   1.773   2.278
 5756WAT      O17289   2.234   2.280   1.926
 5756WAT     H117290   2.211   2.258   2.017
 5756WAT     H217291   2.155   2.323   1.892
 5757WAT      O17292   2.957   2.280   1.786
 5757WAT     H117293   2.897   2.353   1.768
 5757WAT     H217294   3.011   2.274   1.708
 5758WAT      O17295   2.478   2.369   2.993
 5758WAT     H117296   2.468   2.275   2.978
 5758WAT     H217297   2.562   2.392   2.953
 5759WAT      O17298   2.817   2.144   1.989
 5759WAT     H117299   2.856   2.175   1.908
 5759WAT     H217300   2.853   2.056   2.000
 5760WAT      O17301   1.991   2.011   2.808
 5760WAT     H117302   1.951   2.095   2.829
 5760WAT     H217303   1.922   1.947   2.827
 5761WAT      O17304   2.648   2.019   3.115
 5761WAT     H117305   2.579   2.000   3.178
 5761WAT     H217306   2.722   2.047   3.168
 5762WAT      O17307   1.721   1.803   2.211
 5762WAT     H117308   1.692   1.860   2.283
 5762WAT     H217309   1.795   1.755   2.248
 5763WAT      O17310   1.740   2.197   1.332
 5763WAT     H117311   1.731   2.291   1.346
 5763WAT     H217312   1.704   2.183   1.244
 5764WAT      O17313   2.876   2.403   2.399
 5764WAT     H117314   2.803   2.454   2.433
 5764WAT     H217315   2.836   2.321   2.368
 5765WAT      O17316   2.519   2.070   2.239
 5765WAT     H117317   2.520   2.026   2.154
 5765WAT     H217318   2.609   2.103   2.250
 5766WAT      O17319   2.105   2.059   2.135
 5766WAT     H117320   2.071   2.106   2.211
 5766WAT     H217321   2.028   2.013   2.099
 5767WAT      O17322   2.526   2.170   1.538
 5767WAT     H117323   2.538   2.166   1.633
 5767WAT     H217324   2.487   2.257   1.523
 5768WAT      O17325   2.922   1.948   2.340
 5768WAT     H117326   2.924   1.993   2.424
 5768WAT     H217327   2.897   1.858   2.361
 5769WAT      O17328   2.427   2.402   1.478
 5769WAT     H117329   2.370   2.357   1.415
 5769WAT     H217330   2.498   2.437   1.425
 5770WAT      O17331   3.265   1.689   2.924
 5770WAT     H117332   3.297   1.616   2.976
 5770WAT     H217333   3.268   1.658   2.833
 5771WAT      O17334   1.935   2.792   2.866
 5771WAT     H117335   1.896   2.728   2.925
 5771WAT     H217336   1.966   2.862   2.923
 5772WAT      O17337   2.550   2.476   2.414
 5772WAT     H117338   2.586   2.429   2.488
 5772WAT     H217339   2.531   2.564   2.448
 5773WAT      O17340   1.836   1.951   2.027
 5773WAT     H117341   1.807   1.914   2.110
 5773WAT     H217342   1.830   1.878   1.965
 5774WAT      O17343   2.329   2.380   2.646
 5774WAT     H117344   2.298   2.468   2.668
 5774WAT     H217345   2.424   2.386   2.649
 5775WAT      O17346   2.181   2.801   1.705
 5775WAT     H117347   2.104   2.747   1.689
 5775WAT     H217348   2.254   2.749   1.671
 5776WAT      O17349   3.257   2.701   2.284
 5776WAT     H117350   3.329   2.750   2.245
 5776WAT     H217351   3.237   2.633   2.220
 5777WAT      O17352   2.803   1.840   1.699
 5777WAT     H117353   2.722   1.790   1.691
 5777WAT     H217354   2.784   1.924   1.657
 5778WAT      O17355   2.795   2.708   2.873
 5778WAT     H117356   2.789   2.616   2.848
 5778WAT     H217357   2.732   2.718   2.945
 5779WAT      O17358   3.075   2.277   1.528
 5779WAT     H117359   3.164   2.308   1.511
 5779WAT     H217360   3.072   2.190   1.489
 5780WAT      O17361   2.186   2.768   2.069
 5780WAT     H117362   2.238   2.688   2.064
 5780WAT     H217363   2.141   2.762   2.153
 5781WAT      O17364   2.674   2.895   1.596
 5781WAT     H117365   2.709   2.969   1.547
 5781WAT     H217366   2.592   2.926   1.633
 5782WAT      O17367   1.934   2.465   2.760
 5782WAT     H117368   1.898   2.531   2.819
 5782WAT     H217369   1.905   2.381   2.797
 5783WAT      O17370   2.254   2.510   3.049
 5783WAT     H117371   2.224   2.525   2.959
 5783WAT     H217372   2.331   2.454   3.039
 5784WAT      O17373   2.789   2.990   2.848
 5784WAT     H117374   2.790   2.897   2.826
 5784WAT     H217375   2.718   2.999   2.912
 5785WAT      O17376   3.302   2.408   1.475
 5785WAT     H117377   3.294   2.452   1.390
 5785WAT     H217378   3.374   2.454   1.518
 5786WAT      O17379   3.410   2.654   2.783
 5786WAT     H117380   3.337   2.713   2.763
 5786WAT     H217381   3.462   2.653   2.703
 5787WAT      O17382   3.405   3.094   1.748
 5787WAT     H117383   3.341   3.028   1.775
 5787WAT     H217384   3.366   3.134   1.670
 5788WAT      O17385   2.963   2.827   2.133
 5788WAT     H117386   2.998   2.767   2.067
 5788WAT     H217387   2.874   2.794   2.150
 5789WAT      O17388   2.571   2.903   1.873
 5789WAT     H117389   2.640   2.957   1.912
 5789WAT     H217390   2.493   2.957   1.877
 5790WAT      O17391   1.785   2.464   1.423
 5790WAT     H117392   1.872   2.493   1.451
 5790WAT     H217393   1.736   2.546   1.411
 5791WAT      O17394   2.502   2.603   1.835
 5791WAT     H117395   2.547   2.684   1.857
 5791WAT     H217396   2.467   2.571   1.918
 5792WAT      O17397   2.732   3.154   2.558
 5792WAT     H117398   2.796   3.175   2.625
 5792WAT     H217399   2.768   3.078   2.512
 5793WAT      O17400   2.092   1.638   1.882
 5793WAT     H117401   2.079   1.637   1.977
 5793WAT     H217402   2.009   1.671   1.847
 5794WAT      O17403   2.859   2.955   2.429
 5794WAT     H117404   2.923   2.884   2.441
 5794WAT     H217405   2.912   3.033   2.411
 5795WAT      O17406   3.244   2.983   1.402
 5795WAT     H117407   3.221   2.911   1.461
 5795WAT     H217408   3.205   2.958   1.318
 5796WAT      O17409   3.037   3.034   2.750
 5796WAT     H117410   3.070   3.093   2.818
 5796WAT     H217411   2.945   3.021   2.773
 5797WAT      O17412   1.822   3.386   1.479
 5797WAT     H117413   1.858   3.446   1.414
 5797WAT     H217414   1.808   3.440   1.557
 5798WAT      O17415   1.792   1.813   2.828
 5798WAT     H117416   1.720   1.833   2.888
 5798WAT     H217417   1.834   1.736   2.865
 5799WAT      O17418   3.202   2.775   1.568
 5799WAT     H117419   3.173   2.821   1.647
 5799WAT     H217420   3.282   2.729   1.595
 5800WAT      O17421   1.820   3.212   2.927
 5800WAT     H117422   1.831   3.118   2.913
 5800WAT     H217423   1.755   3.239   2.862
 5801WAT      O17424   2.620   3.039   3.067
 5801WAT     H117425   2.588   2.967   3.121
 5801WAT     H217426   2.552   3.107   3.074
 5802WAT      O17427   2.424   3.124   1.561
 5802WAT     H117428   2.423   3.197   1.499
 5802WAT     H217429   2.332   3.099   1.570
 5803WAT      O17430   1.984   2.646   1.635
 5803WAT     H117431   1.923   2.720   1.636
 5803WAT     H217432   2.031   2.655   1.553
 5804WAT      O17433   2.941   2.063   2.603
 5804WAT     H117434   2.978   1.981   2.636
 5804WAT     H217435   2.855   2.069   2.645
 5805WAT      O17436   3.278   1.958   1.684
 5805WAT     H117437   3.215   1.969   1.612
 5805WAT     H217438   3.228   1.980   1.763
 5806WAT      O17439   2.722   3.130   1.427
 5806WAT     H117440   2.732   3.110   1.334
 5806WAT     H217441   2.632   3.105   1.448
 5807WAT      O17442   2.475   2.186   1.825
 5807WAT     H117443   2.404   2.233   1.870
 5807WAT     H217444   2.503   2.120   1.889
 5808WAT      O17445   2.637   2.328   2.625
 5808WAT     H117446   2.687   2.376   2.692
 5808WAT     H217447   2.651   2.236   2.646
 5809WAT      O17448   2.878   1.859   1.969
 5809WAT     H117449   2.865   1.860   1.874
 5809WAT     H217450   2.973   1.863   1.981
 5810WAT      O17451   2.586   3.382   1.897
 5810WAT     H117452   2.612   3.378   1.804
 5810WAT     H217453   2.492   3.369   1.896
 5811WAT      O17454   2.295   2.017   1.563
 5811WAT     H117455   2.380   2.061   1.556
 5811WAT     H217456   2.258   2.048   1.646
 5812WAT      O17457   3.358   1.950   2.710
 5812WAT     H117458   3.307   2.024   2.744
 5812WAT     H217459   3.439   1.989   2.678
 5813WAT      O17460   3.187   2.474   2.054
 5813WAT     H117461   3.093   2.476   2.072
 5813WAT     H217462   3.218   2.395   2.099
 5814WAT      O17463   2.185   2.642   1.410
 5814WAT     H117464   2.261   2.631   1.467
 5814WAT     H217465   2.193   2.573   1.345
 5815WAT      O17466   2.054   2.386   1.479
 5815WAT     H117467   2.062   2.291   1.490
 5815WAT     H217468   2.143   2.419   1.489
 5816WAT      O17469   3.387   3.191   2.222
 5816WAT     H117470   3.400   3.273   2.269
 5816WAT     H217471   3.474   3.170   2.187
 5817WAT      O17472   2.134   3.400   2.189
 5817WAT     H117473   2.208   3.346   2.216
 5817WAT     H217474   2.173   3.487   2.175
 5818WAT      O17475   1.823   3.007   1.776
 5818WAT     H117476   1.730   3.031   1.775
 5818WAT     H217477   1.869   3.090   1.764
 5819WAT      O17478   2.035   3.319   3.108
 5819WAT     H117479   2.115   3.351   3.149
 5819WAT     H217480   1.984   3.283   3.180
 5820WAT      O17481   2.445   3.318   1.371
 5820WAT     H117482   2.525   3.347   1.326
 5820WAT     H217483   2.393   3.275   1.303
 5821WAT      O17484   2.919   2.930   3.103
 5821WAT     H117485   2.858   2.932   3.029
 5821WAT     H217486   2.888   2.857   3.156
 5822WAT      O17487   3.351   3.240   1.514
 5822WAT     H117488   3.322   3.199   1.432
 5822WAT     H217489   3.331   3.333   1.502
 5823WAT      O17490   1.807   2.568   3.002
 5823WAT     H117491   1.857   2.510   3.059
 5823WAT     H217492   1.733   2.596   3.056
 5824WAT      O17493   2.497   2.840   1.358
 5824WAT     H117494   2.487   2.778   1.430
 5824WAT     H217495   2.480   2.787   1.279
 5825WAT      O17496   2.512   2.708   2.956
 5825WAT     H117497   2.436   2.765   2.947
 5825WAT     H217498   2.531   2.679   2.866
 5826WAT      O17499   2.821   2.746   1.418
 5826WAT     H117500   2.766   2.791   1.483
 5826WAT     H217501   2.883   2.696   1.470
 5827WAT      O17502   3.227   2.881   3.011
 5827WAT     H117503   3.301   2.915   2.961
 5827WAT     H217504   3.150   2.898   2.956
 5828WAT      O17505   2.010   2.382   3.092
 5828WAT     H117506   2.014   2.352   3.183
 5828WAT     H217507   2.096   2.422   3.076
 5829WAT      O17508   2.388   2.642   1.608
 5829WAT     H117509   2.430   2.625   1.692
 5829WAT     H217510   2.400   2.561   1.558
 5830WAT      O17511   2.204   2.240   2.888
 5830WAT     H117512   2.151   2.191   2.826
 5830WAT     H217513   2.271   2.283   2.835
 5831WAT      O17514   2.639   2.544   1.333
 5831WAT     H117515   2.691   2.473   1.296
 5831WAT     H217516   2.704   2.608   1.363
 5832WAT      O17517   3.094   2.687   2.865
 5832WAT     H117518   3.135   2.702   2.950
 5832WAT     H217519   3.001   2.699   2.881
 5833WAT      O17520   3.141   2.421   3.065
 5833WAT     H117521   3.199   2.345   3.056
 5833WAT     H217522   3.159   2.474   2.988
 5834WAT      O17523   2.253   1.937   2.896
 5834WAT     H117524   2.244   1.875   2.824
 5834WAT     H217525   2.195   2.009   2.874
 5835WAT      O17526   2.530   1.792   2.600
 5835WAT     H117527   2.485   1.794   2.515
 5835WAT     H217528   2.466   1.752   2.659
 5836WAT      O17529   2.570   2.682   2.662
 5836WAT     H117530   2.612   2.766   2.645
 5836WAT     H217531   2.478   2.696   2.639
 5837WAT      O17532   2.804   2.455   2.800
 5837WAT     H117533   2.816   2.395   2.874
 5837WAT     H217534   2.890   2.459   2.758
 5838WAT      O17535   3.038   2.510   2.658
 5838WAT     H117536   2.985   2.563   2.597
 5838WAT     H217537   3.072   2.574   2.721
 5839WAT      O17538   2.278   2.249   1.302
 5839WAT     H117539   2.257   2.163   1.338
 5839WAT     H217540   2.260   2.241   1.209
 5840WAT      O17541   2.355   3.312   2.773
 5840WAT     H117542   2.301   3.385   2.741
 5840WAT     H217543   2.381   3.265   2.694
 5841WAT      O17544   2.481   2.109   2.926
 5841WAT     H117545   2.540   2.078   2.995
 5841WAT     H217546   2.399   2.062   2.942
 5842WAT      O17547   2.962   2.071   2.949
 5842WAT     H117548   2.894   2.005   2.943
 5842WAT     H217549   3.035   2.026   2.994
 5843WAT      O17550   3.025   1.730   1.555
 5843WAT     H117551   3.053   1.646   1.591
 5843WAT     H217552   2.948   1.754   1.607
 5844WAT      O17553   2.157   1.959   1.301
 5844WAT     H117554   2.188   1.960   1.210
 5844WAT     H217555   2.231   1.924   1.351
 5845WAT      O17556   2.641   3.436   2.799
 5845WAT     H117557   2.633   3.526   2.830
 5845WAT     H217558   2.551   3.404   2.796
 5846WAT      O17559   2.479   1.854   1.400
 5846WAT     H117560   2.444   1.786   1.342
 5846WAT     H217561   2.499   1.807   1.481
 5847WAT      O17562   2.696   3.352   1.562
 5847WAT     H117563   2.785   3.386   1.564
 5847WAT     H217564   2.699   3.280   1.499
 5848WAT      O17565   2.060   2.890   1.384
 5848WAT     H117566   2.103   2.944   1.450
 5848WAT     H217567   2.108   2.807   1.385
 5849WAT      O17568   1.781   3.169   2.130
 5849WAT     H117569   1.814   3.082   2.106
 5849WAT     H217570   1.824   3.189   2.213
 5850WAT      O17571   2.241   3.002   1.896
 5850WAT     H117572   2.211   2.989   1.986
 5850WAT     H217573   2.230   2.916   1.855
 5851WAT      O17574   1.830   3.255   2.403
 5851WAT     H117575   1.786   3.273   2.487
 5851WAT     H217576   1.887   3.331   2.389
 5852WAT      O17577   3.518   2.980   1.366
 5852WAT     H117578   3.435   2.986   1.413
 5852WAT     H217579   3.535   3.069   1.336
 5853WAT      O17580   3.463   2.654   1.616
 5853WAT     H117581   3.539   2.711   1.627
 5853WAT     H217582   3.465   2.597   1.693
 5854WAT      O17583   1.813   2.506   2.039
 5854WAT     H117584   1.748   2.480   1.975
 5854WAT     H217585   1.897   2.496   1.994
 5855WAT      O17586   3.564   2.740   2.101
 5855WAT     H117587   3.601   2.661   2.060
 5855WAT     H217588   3.628   2.808   2.083
 5856WAT      O17589   3.262   2.878   2.642
 5856WAT     H117590   3.181   2.921   2.668
 5856WAT     H217591   3.303   2.939   2.581
 5857WAT      O17592   3.468   2.683   1.332
 5857WAT     H117593   3.496   2.774   1.319
 5857WAT     H217594   3.450   2.677   1.426
 5858WAT      O17595   3.108   1.986   1.461
 5858WAT     H117596   3.150   1.967   1.377
 5858WAT     H217597   3.078   1.901   1.493
 5859WAT      O17598   3.458   2.477   1.831
 5859WAT     H117599   3.421   2.400   1.788
 5859WAT     H217600   3.385   2.515   1.880
 5860WAT      O17601   1.917   2.545   2.493
 5860WAT     H117602   1.954   2.536   2.581
 5860WAT     H217603   1.860   2.469   2.483
 5861WAT      O17604   3.397   2.392   2.795
 5861WAT     H117605   3.374   2.369   2.705
 5861WAT     H217606   3.423   2.484   2.790
 5862WAT      O17607   1.872   2.236   2.884
 5862WAT     H117608   1.783   2.233   2.918
 5862WAT     H217609   1.926   2.256   2.960
 5863WAT      O17610   3.241   1.914   3.072
 5863WAT     H117611   3.329   1.915   3.111
 5863WAT     H217612   3.242   1.841   3.011
 5864WAT      O17613   1.735   2.227   1.634
 5864WAT     H117614   1.644   2.254   1.616
 5864WAT     H217615   1.783   2.255   1.556
 5865WAT      O17616   3.386   2.300   2.161
 5865WAT     H117617   3.438   2.250   2.098
 5865WAT     H217618   3.444   2.313   2.236
 5866WAT      O17619   3.404   2.308   2.514
 5866WAT     H117620   3.309   2.305   2.525
 5866WAT     H217621   3.422   2.399   2.490
 5867WAT      O17622   1.989   2.133   1.424
 5867WAT     H117623   2.060   2.091   1.376
 5867WAT     H217624   1.917   2.140   1.361
 5868WAT      O17625   1.954   1.739   1.329
 5868WAT     H117626   2.026   1.793   1.360
 5868WAT     H217627   1.981   1.711   1.241
 5869WAT      O17628   3.335   2.225   1.755
 5869WAT     H117629   3.384   2.202   1.834
 5869WAT     H217630   3.315   2.142   1.714
 5870WAT      O17631   1.923   1.664   2.319
 5870WAT     H117632   1.987   1.609   2.275
 5870WAT     H217633   1.965   1.689   2.401
 5871WAT      O17634   3.477   2.089   2.009
 5871WAT     H117635   3.466   2.074   2.102
 5871WAT     H217636   3.554   2.036   1.984
 5872WAT      O17637   3.312   1.683   2.654
 5872WAT     H117638   3.376   1.744   2.691
 5872WAT     H217639   3.327   1.687   2.560
 5873WAT      O17640   3.566   1.872   1.333
 5873WAT     H117641   3.659   1.859   1.312
 5873WAT     H217642   3.564   1.880   1.428
 5874WAT      O17643   3.574   1.949   1.595
 5874WAT     H117644   3.494   1.943   1.648
 5874WAT     H217645   3.594   2.043   1.594
 5875WAT      O17646   3.268   3.353   1.995
 5875WAT     H117647   3.328   3.321   1.927
 5875WAT     H217648   3.294   3.306   2.074
 5876WAT      O17649   1.898   1.679   2.593
 5876WAT     H117650   1.863   1.725   2.670
 5876WAT     H217651   1.865   1.590   2.601
 5877WAT      O17652   2.059   2.996   3.010
 5877WAT     H117653   2.054   2.959   3.098
 5877WAT     H217654   2.072   3.090   3.024
 5878WAT      O17655   2.429   3.152   2.570
 5878WAT     H117656   2.405   3.179   2.481
 5878WAT     H217657   2.523   3.169   2.575
 5879WAT      O17658   2.649   1.798   2.945
 5879WAT     H117659   2.643   1.857   3.020
 5879WAT     H217660   2.743   1.788   2.931
 5880WAT      O17661   2.913   1.764   2.909
 5880WAT     H117662   2.974   1.796   2.843
 5880WAT     H217663   2.967   1.715   2.971
 5881WAT      O17664   3.555   3.354   2.650
 5881WAT     H117665   3.505   3.394   2.578
 5881WAT     H217666   3.494   3.291   2.689
 5882WAT      O17667   1.965   1.632   2.921
 5882WAT     H117668   2.020   1.614   2.844
 5882WAT     H217669   1.972   1.553   2.974
 5883WAT      O17670   2.042   3.291   2.722
 5883WAT     H117671   1.983   3.278   2.795
 5883WAT     H217672   2.042   3.207   2.675
 5884WAT      O17673   2.987   1.620   2.542
 5884WAT     H117674   2.900   1.654   2.522
 5884WAT     H217675   2.976   1.573   2.624
 5885WAT      O17676   3.078   1.841   2.680
 5885WAT     H117677   3.045   1.760   2.642
 5885WAT     H217678   3.173   1.837   2.668
 5886WAT      O17679   3.323   3.418   2.378
 5886WAT     H117680   3.277   3.493   2.340
 5886WAT     H217681   3.260   3.346   2.372
 5887WAT      O17682   2.006   3.028   2.617
 5887WAT     H117683   1.933   2.966   2.610
 5887WAT     H217684   2.012   3.067   2.530
 5888WAT      O17685   2.366   3.249   2.295
 5888WAT     H117686   2.418   3.188   2.243
 5888WAT     H217687   2.431   3.299   2.344
 5889WAT      O17688   2.640   3.338   2.378
 5889WAT     H117689   2.669   3.313   2.290
 5889WAT     H217690   2.691   3.283   2.437
 5890WAT      O17691   2.762   1.712   2.436
 5890WAT     H117692   2.683   1.759   2.464
 5890WAT     H217693   2.732   1.622   2.425
 5891WAT      O17694   3.217   1.782   2.240
 5891WAT     H117695   3.261   1.777   2.155
 5891WAT     H217696   3.190   1.874   2.247
 5892WAT      O17697   3.403   1.745   2.041
 5892WAT     H117698   3.397   1.651   2.027
 5892WAT     H217699   3.481   1.756   2.096
 5893WAT      O17700   1.834   3.359   1.938
 5893WAT     H117701   1.817   3.296   2.007
 5893WAT     H217702   1.747   3.380   1.902
 5894WAT      O17703   1.896   1.742   1.688
 5894WAT     H117704   1.972   1.754   1.631
 5894WAT     H217705   1.850   1.826   1.683
 5895WAT      O17706   2.550   1.954   1.987
 5895WAT     H117707   2.469   1.916   1.953
 5895WAT     H217708   2.601   1.878   2.017
 5896WAT      O17709   3.001   1.620   2.111
 5896WAT     H117710   3.061   1.677   2.158
 5896WAT     H217711   2.926   1.677   2.088
 5897WAT      O17712   3.315   1.660   1.638
 5897WAT     H117713   3.334   1.750   1.665
 5897WAT     H217714   3.236   1.637   1.687
 5898WAT      O17715   1.995   3.229   1.682
 5898WAT     H117716   1.942   3.267   1.612
 5898WAT     H217717   1.987   3.291   1.754
 5899WAT      O17718   2.133   1.795   1.542
 5899WAT     H117719   2.186   1.716   1.529
 5899WAT     H217720   2.197   1.863   1.565
 5900WAT      O17721   2.353   1.769   1.847
 5900WAT     H117722   2.290   1.699   1.864
 5900WAT     H217723   2.299   1.845   1.826
 5901WAT      O17724   2.647   3.430   3.114
 5901WAT     H117725   2.739   3.407   3.119
 5901WAT     H217726   2.645   3.513   3.066
 5902WAT      O17727   3.470   3.384   1.814
 5902WAT     H117728   3.488   3.316   1.750
 5902WAT     H217729   3.400   3.437   1.775
 5903WAT      O17730   2.365   1.697   3.091
 5903WAT     H117731   2.337   1.747   3.014
 5903WAT     H217732   2.404   1.617   3.054
 5904WAT      O17733   2.254   3.423   1.570
 5904WAT     H117734   2.328   3.395   1.515
 5904WAT     H217735   2.280   3.400   1.659
 5905WAT      O17736   2.171   3.035   1.570
 5905WAT     H117737   2.108   3.082   1.625
 5905WAT     H217738   2.182   2.951   1.613
 5906WAT      O17739   3.026   1.638   3.149
 5906WAT     H117740   3.014   1.670   3.238
 5906WAT     H217741   3.107   1.678   3.119
 5907WAT      O17742   2.729   2.618   0.373
 5907WAT     H117743   2.652   2.570   0.402
 5907WAT     H217744   2.794   2.550   0.356
 5908WAT      O17745   2.131   2.649   0.461
 5908WAT     H117746   2.048   2.624   0.501
 5908WAT     H217747   2.192   2.656   0.534
 5909WAT      O17748   3.131   3.059   0.251
 5909WAT     H117749   3.085   2.981   0.284
 5909WAT     H217750   3.213   3.061   0.302
 5910WAT      O17751   2.129   3.053   0.480
 5910WAT     H117752   2.159   2.964   0.463
 5910WAT     H217753   2.203   3.108   0.458
 5911WAT      O17754   1.768   2.405   0.428
 5911WAT     H117755   1.825   2.328   0.428
 5911WAT     H217756   1.768   2.435   0.337
 5912WAT      O17757   2.673   2.886   0.374
 5912WAT     H117758   2.666   2.791   0.358
 5912WAT     H217759   2.750   2.895   0.431
 5913WAT      O17760   1.892   1.946   0.606
 5913WAT     H117761   1.874   1.856   0.634
 5913WAT     H217762   1.852   2.001   0.674
 5914WAT      O17763   2.776   2.166   0.397
 5914WAT     H117764   2.814   2.079   0.385
 5914WAT     H217765   2.767   2.200   0.307
 5915WAT      O17766   1.954   2.196   0.467
 5915WAT     H117767   2.022   2.222   0.529
 5915WAT     H217768   1.923   2.112   0.501
 5916WAT      O17769   2.374   2.300   0.376
 5916WAT     H117770   2.424   2.350   0.440
 5916WAT     H217771   2.427   2.223   0.358
 5917WAT      O17772   3.584   2.117   0.746
 5917WAT     H117773   3.513   2.156   0.694
 5917WAT     H217774   3.610   2.187   0.806
 5918WAT      O17775   2.202   1.764   0.803
 5918WAT     H117776   2.202   1.816   0.722
 5918WAT     H217777   2.119   1.717   0.800
 5919WAT      O17778   2.327   2.728   0.620
 5919WAT     H117779   2.294   2.791   0.685
 5919WAT     H217780   2.345   2.781   0.542
 5920WAT      O17781   3.178   2.110   0.367
 5920WAT     H117782   3.108   2.139   0.425
 5920WAT     H217783   3.214   2.191   0.331
 5921WAT      O17784   2.170   1.935   0.603
 5921WAT     H117785   2.204   2.020   0.574
 5921WAT     H217786   2.076   1.950   0.615
 5922WAT      O17787   2.248   2.925   0.802
 5922WAT     H117788   2.310   2.993   0.774
 5922WAT     H217789   2.162   2.966   0.793
 5923WAT      O17790   3.340   3.071   0.593
 5923WAT     H117791   3.272   3.138   0.593
 5923WAT     H217792   3.394   3.091   0.517
 5924WAT      O17793   3.485   2.054   0.406
 5924WAT     H117794   3.390   2.058   0.419
 5924WAT     H217795   3.518   2.136   0.445
 5925WAT      O17796   3.093   3.256   0.465
 5925WAT     H117797   3.095   3.216   0.378
 5925WAT     H217798   3.038   3.333   0.454
 5926WAT      O17799   3.033   2.746   0.598
 5926WAT     H117800   3.075   2.725   0.514
 5926WAT     H217801   3.106   2.772   0.655
 5927WAT      O17802   3.428   2.586   0.607
 5927WAT     H117803   3.345   2.593   0.559
 5927WAT     H217804   3.487   2.645   0.560
 5928WAT      O17805   3.124   2.265   0.701
 5928WAT     H117806   3.083   2.347   0.727
 5928WAT     H217807   3.051   2.206   0.682
 5929WAT      O17808   2.385   2.912   0.404
 5929WAT     H117809   2.355   2.852   0.336
 5929WAT     H217810   2.480   2.916   0.393
 5930WAT      O17811   2.209   2.221   0.566
 5930WAT     H117812   2.264   2.232   0.488
 5930WAT     H217813   2.260   2.258   0.637
 5931WAT      O17814   3.193   3.269   0.770
 5931WAT     H117815   3.146   3.350   0.751
 5931WAT     H217816   3.125   3.204   0.785
 5932WAT      O17817   2.294   2.886   1.069
 5932WAT     H117818   2.204   2.908   1.094
 5932WAT     H217819   2.296   2.898   0.974
 5933WAT      O17820   2.176   2.573   0.927
 5933WAT     H117821   2.163   2.660   0.963
 5933WAT     H217822   2.088   2.539   0.912
 5934WAT      O17823   2.356   3.167   1.147
 5934WAT     H117824   2.353   3.208   1.061
 5934WAT     H217825   2.340   3.074   1.131
 5935WAT      O17826   3.551   3.245   1.277
 5935WAT     H117827   3.599   3.293   1.345
 5935WAT     H217828   3.613   3.239   1.205
 5936WAT      O17829   1.772   2.750   0.518
 5936WAT     H117830   1.779   2.763   0.424
 5936WAT     H217831   1.833   2.679   0.538
 5937WAT      O17832   3.492   2.965   0.993
 5937WAT     H117833   3.504   2.941   0.901
 5937WAT     H217834   3.496   2.881   1.040
 5938WAT      O17835   2.878   3.335   0.850
 5938WAT     H117836   2.929   3.326   0.930
 5938WAT     H217837   2.794   3.369   0.879
 5939WAT      O17838   3.477   2.170   1.090
 5939WAT     H117839   3.415   2.221   1.037
 5939WAT     H217840   3.445   2.080   1.084
 5940WAT      O17841   1.777   2.854   0.772
 5940WAT     H117842   1.794   2.807   0.690
 5940WAT     H217843   1.824   2.803   0.839
 5941WAT      O17844   2.254   1.767   0.276
 5941WAT     H117845   2.210   1.845   0.243
 5941WAT     H217846   2.310   1.799   0.347
 5942WAT      O17847   2.683   2.054   0.836
 5942WAT     H117848   2.637   2.075   0.917
 5942WAT     H217849   2.643   1.972   0.806
 5943WAT      O17850   3.183   2.176   0.949
 5943WAT     H117851   3.098   2.146   0.981
 5943WAT     H217852   3.167   2.200   0.858
 5944WAT      O17853   2.893   2.326   1.159
 5944WAT     H117854   2.925   2.243   1.125
 5944WAT     H217855   2.971   2.378   1.174
 5945WAT      O17856   2.458   1.822   0.462
 5945WAT     H117857   2.488   1.912   0.454
 5945WAT     H217858   2.513   1.773   0.400
 5946WAT      O17859   2.478   2.369   1.115
 5946WAT     H117860   2.468   2.275   1.100
 5946WAT     H217861   2.562   2.392   1.076
 5947WAT      O17862   1.991   2.011   0.931
 5947WAT     H117863   1.951   2.095   0.951
 5947WAT     H217864   1.922   1.947   0.950
 5948WAT      O17865   2.648   2.019   1.238
 5948WAT     H117866   2.579   2.000   1.301
 5948WAT     H217867   2.722   2.047   1.291
 5949WAT      O17868   1.721   1.803   0.334
 5949WAT     H117869   1.692   1.860   0.405
 5949WAT     H217870   1.795   1.755   0.370
 5950WAT      O17871   2.876   2.403   0.521
 5950WAT     H117872   2.803   2.454   0.556
 5950WAT     H217873   2.836   2.321   0.491
 5951WAT      O17874   2.519   2.070   0.362
 5951WAT     H117875   2.520   2.026   0.277
 5951WAT     H217876   2.609   2.103   0.372
 5952WAT      O17877   2.105   2.059   0.258
 5952WAT     H117878   2.071   2.106   0.333
 5952WAT     H217879   2.028   2.013   0.222
 5953WAT      O17880   2.922   1.948   0.462
 5953WAT     H117881   2.924   1.993   0.547
 5953WAT     H217882   2.897   1.858   0.484
 5954WAT      O17883   3.265   1.689   1.046
 5954WAT     H117884   3.297   1.616   1.099
 5954WAT     H217885   3.268   1.658   0.956
 5955WAT      O17886   1.935   2.792   0.988
 5955WAT     H117887   1.896   2.728   1.048
 5955WAT     H217888   1.966   2.862   1.045
 5956WAT      O17889   2.550   2.476   0.536
 5956WAT     H117890   2.586   2.429   0.611
 5956WAT     H217891   2.531   2.564   0.570
 5957WAT      O17892   2.329   2.380   0.768
 5957WAT     H117893   2.298   2.468   0.791
 5957WAT     H217894   2.424   2.386   0.772
 5958WAT      O17895   3.257   2.701   0.407
 5958WAT     H117896   3.329   2.750   0.368
 5958WAT     H217897   3.237   2.633   0.343
 5959WAT      O17898   2.795   2.708   0.996
 5959WAT     H117899   2.789   2.616   0.970
 5959WAT     H217900   2.732   2.718   1.067
 5960WAT      O17901   2.186   2.768   0.192
 5960WAT     H117902   2.238   2.688   0.186
 5960WAT     H217903   2.141   2.762   0.276
 5961WAT      O17904   1.934   2.465   0.883
 5961WAT     H117905   1.898   2.531   0.942
 5961WAT     H217906   1.905   2.381   0.920
 5962WAT      O17907   2.254   2.510   1.171
 5962WAT     H117908   2.224   2.525   1.081
 5962WAT     H217909   2.331   2.454   1.162
 5963WAT      O17910   2.789   2.990   0.971
 5963WAT     H117911   2.790   2.897   0.949
 5963WAT     H217912   2.718   2.999   1.035
 5964WAT      O17913   3.410   2.654   0.905
 5964WAT     H117914   3.337   2.713   0.886
 5964WAT     H217915   3.462   2.653   0.826
 5965WAT      O17916   2.963   2.827   0.255
 5965WAT     H117917   2.998   2.767   0.189
 5965WAT     H217918   2.874   2.794   0.272
 5966WAT      O17919   2.732   3.154   0.680
 5966WAT     H117920   2.796   3.175   0.748
 5966WAT     H217921   2.768   3.078   0.635
 5967WAT      O17922   2.859   2.955   0.552
 5967WAT     H117923   2.923   2.884   0.563
 5967WAT     H217924   2.912   3.033   0.534
 5968WAT      O17925   3.037   3.034   0.872
 5968WAT     H117926   3.070   3.093   0.940
 5968WAT     H217927   2.945   3.021   0.895
 5969WAT      O17928   1.792   1.813   0.951
 5969WAT     H117929   1.720   1.833   1.011
 5969WAT     H217930   1.834   1.736   0.988
 5970WAT      O17931   1.820   3.212   1.049
 5970WAT     H117932   1.831   3.118   1.035
 5970WAT     H217933   1.755   3.239   0.984
 5971WAT      O17934   2.620   3.039   1.189
 5971WAT     H117935   2.588   2.967   1.244
 5971WAT     H217936   2.552   3.107   1.197
 5972WAT      O17937   2.941   2.063   0.726
 5972WAT     H117938   2.978   1.981   0.758
 5972WAT     H217939   2.855   2.069   0.767
 5973WAT      O17940   2.637   2.328   0.748
 5973WAT     H117941   2.687   2.376   0.814
 5973WAT     H217942   2.651   2.236   0.769
 5974WAT      O17943   3.358   1.950   0.832
 5974WAT     H117944   3.307   2.024   0.866
 5974WAT     H217945   3.439   1.989   0.801
 5975WAT      O17946   3.187   2.474   0.177
 5975WAT     H117947   3.093   2.476   0.194
 5975WAT     H217948   3.218   2.395   0.221
 5976WAT      O17949   3.387   3.191   0.344
 5976WAT     H117950   3.400   3.273   0.392
 5976WAT     H217951   3.474   3.170   0.310
 5977WAT      O17952   2.134   3.400   0.312
 5977WAT     H117953   2.208   3.346   0.339
 5977WAT     H217954   2.173   3.487   0.298
 5978WAT      O17955   2.035   3.319   1.230
 5978WAT     H117956   2.115   3.351   1.272
 5978WAT     H217957   1.984   3.283   1.303
 5979WAT      O17958   2.919   2.930   1.225
 5979WAT     H117959   2.858   2.932   1.151
 5979WAT     H217960   2.888   2.857   1.279
 5980WAT      O17961   3.062   3.303   1.086
 5980WAT     H117962   3.157   3.294   1.081
 5980WAT     H217963   3.047   3.369   1.154
 5981WAT      O17964   1.807   2.568   1.125
 5981WAT     H117965   1.857   2.510   1.182
 5981WAT     H217966   1.733   2.596   1.179
 5982WAT      O17967   2.512   2.708   1.078
 5982WAT     H117968   2.436   2.765   1.070
 5982WAT     H217969   2.531   2.679   0.989
 5983WAT      O17970   3.227   2.881   1.134
 5983WAT     H117971   3.301   2.915   1.084
 5983WAT     H217972   3.150   2.898   1.079
 5984WAT      O17973   2.010   2.382   1.214
 5984WAT     H117974   2.014   2.352   1.305
 5984WAT     H217975   2.096   2.422   1.198
 5985WAT      O17976   2.204   2.240   1.011
 5985WAT     H117977   2.151   2.191   0.948
 5985WAT     H217978   2.271   2.283   0.958
 5986WAT      O17979   3.094   2.687   0.987
 5986WAT     H117980   3.135   2.702   1.072
 5986WAT     H217981   3.001   2.699   1.004
 5987WAT      O17982   3.141   2.421   1.188
 5987WAT     H117983   3.199   2.345   1.179
 5987WAT     H217984   3.159   2.474   1.110
 5988WAT      O17985   2.253   1.937   1.019
 5988WAT     H117986   2.244   1.875   0.946
 5988WAT     H217987   2.195   2.009   0.996
 5989WAT      O17988   2.530   1.792   0.722
 5989WAT     H117989   2.485   1.794   0.638
 5989WAT     H217990   2.466   1.752   0.782
 5990WAT      O17991   2.570   2.682   0.784
 5990WAT     H117992   2.612   2.766   0.767
 5990WAT     H217993   2.478   2.696   0.761
 5991WAT      O17994   2.804   2.455   0.923
 5991WAT     H117995   2.816   2.395   0.997
 5991WAT     H217996   2.890   2.459   0.881
 5992WAT      O17997   3.038   2.510   0.780
 5992WAT     H117998   2.985   2.563   0.720
 5992WAT     H217999   3.072   2.574   0.843
 5993WAT      O18000   2.355   3.312   0.896
 5993WAT     H118001   2.301   3.385   0.864
 5993WAT     H218002   2.381   3.265   0.817
 5994WAT      O18003   2.481   2.109   1.049
 5994WAT     H118004   2.540   2.078   1.117
 5994WAT     H218005   2.399   2.062   1.064
 5995WAT      O18006   2.962   2.071   1.072
 5995WAT     H118007   2.894   2.005   1.065
 5995WAT     H218008   3.035   2.026   1.116
 5996WAT      O18009   2.641   3.436   0.922
 5996WAT     H118010   2.633   3.526   0.953
 5996WAT     H218011   2.551   3.404   0.919
 5997WAT      O18012   1.781   3.169   0.252
 5997WAT     H118013   1.814   3.082   0.229
 5997WAT     H218014   1.824   3.189   0.335
 5998WAT      O18015   1.830   3.255   0.526
 5998WAT     H118016   1.786   3.273   0.609
 5998WAT     H218017   1.887   3.331   0.512
 5999WAT      O18018   3.394   3.205   0.955
 5999WAT     H118019   3.334   3.211   0.880
 5999WAT     H218020   3.407   3.111   0.968
 6000WAT      O18021   3.564   2.740   0.223
 6000WAT     H118022   3.601   2.661   0.183
 6000WAT     H218023   3.628   2.808   0.205
 6001WAT      O18024   3.262   2.878   0.765
 6001WAT     H118025   3.181   2.921   0.791
 6001WAT     H218026   3.303   2.939   0.703
 6002WAT      O18027   1.917   2.545   0.616
 6002WAT     H118028   1.954   2.536   0.704
 6002WAT     H218029   1.860   2.469   0.606
 6003WAT      O18030   3.397   2.392   0.917
 6003WAT     H118031   3.374   2.369   0.827
 6003WAT     H218032   3.423   2.484   0.913
 6004WAT      O18033   1.872   2.236   1.006
 6004WAT     H118034   1.783   2.233   1.040
 6004WAT     H218035   1.926   2.256   1.083
 6005WAT      O18036   3.241   1.914   1.195
 6005WAT     H118037   3.329   1.915   1.233
 6005WAT     H218038   3.242   1.841   1.134
 6006WAT      O18039   3.386   2.300   0.284
 6006WAT     H118040   3.438   2.250   0.221
 6006WAT     H218041   3.444   2.313   0.358
 6007WAT      O18042   3.404   2.308   0.636
 6007WAT     H118043   3.309   2.305   0.648
 6007WAT     H218044   3.422   2.399   0.613
 6008WAT      O18045   1.923   1.664   0.441
 6008WAT     H118046   1.987   1.609   0.397
 6008WAT     H218047   1.965   1.689   0.523
 6009WAT      O18048   3.312   1.683   0.777
 6009WAT     H118049   3.376   1.744   0.814
 6009WAT     H218050   3.327   1.687   0.683
 6010WAT      O18051   1.898   1.679   0.716
 6010WAT     H118052   1.863   1.725   0.792
 6010WAT     H218053   1.865   1.590   0.724
 6011WAT      O18054   2.059   2.996   1.132
 6011WAT     H118055   2.054   2.959   1.220
 6011WAT     H218056   2.072   3.090   1.146
 6012WAT      O18057   2.429   3.152   0.692
 6012WAT     H118058   2.405   3.179   0.603
 6012WAT     H218059   2.523   3.169   0.698
 6013WAT      O18060   2.649   1.798   1.068
 6013WAT     H118061   2.643   1.857   1.143
 6013WAT     H218062   2.743   1.788   1.053
 6014WAT      O18063   2.913   1.764   1.032
 6014WAT     H118064   2.974   1.796   0.965
 6014WAT     H218065   2.967   1.715   1.094
 6015WAT      O18066   3.555   3.354   0.772
 6015WAT     H118067   3.505   3.394   0.701
 6015WAT     H218068   3.494   3.291   0.812
 6016WAT      O18069   1.965   1.632   1.043
 6016WAT     H118070   2.020   1.614   0.967
 6016WAT     H218071   1.972   1.553   1.097
 6017WAT      O18072   2.042   3.291   0.844
 6017WAT     H118073   1.983   3.278   0.918
 6017WAT     H218074   2.042   3.207   0.797
 6018WAT      O18075   2.987   1.620   0.664
 6018WAT     H118076   2.900   1.654   0.644
 6018WAT     H218077   2.976   1.573   0.747
 6019WAT      O18078   3.078   1.841   0.803
 6019WAT     H118079   3.045   1.760   0.765
 6019WAT     H218080   3.173   1.837   0.790
 6020WAT      O18081   3.323   3.418   0.500
 6020WAT     H118082   3.277   3.493   0.463
 6020WAT     H218083   3.260   3.346   0.494
 6021WAT      O18084   2.006   3.028   0.739
 6021WAT     H118085   1.933   2.966   0.732
 6021WAT     H218086   2.012   3.067   0.652
 6022WAT      O18087   2.366   3.249   0.418
 6022WAT     H118088   2.418   3.188   0.365
 6022WAT     H218089   2.431   3.299   0.467
 6023WAT      O18090   2.640   3.338   0.500
 6023WAT     H118091   2.669   3.313   0.413
 6023WAT     H218092   2.691   3.283   0.559
 6024WAT      O18093   2.762   1.712   0.558
 6024WAT     H118094   2.683   1.759   0.586
 6024WAT     H218095   2.732   1.622   0.547
 6025WAT      O18096   3.217   1.782   0.363
 6025WAT     H118097   3.261   1.777   0.278
 6025WAT     H218098   3.190   1.874   0.370
 6026WAT      O18099   3.001   1.620   0.233
 6026WAT     H118100   3.061   1.677   0.281
 6026WAT     H218101   2.926   1.677   0.211
 6027WAT      O18102   2.647   3.430   1.237
 6027WAT     H118103   2.739   3.407   1.241
 6027WAT     H218104   2.645   3.513   1.189
 6028WAT      O18105   2.365   1.697   1.213
 6028WAT     H118106   2.337   1.747   1.137
 6028WAT     H218107   2.404   1.617   1.177
 6029WAT      O18108   3.026   1.638   1.271
 6029WAT     H118109   3.014   1.670   1.361
 6029WAT     H218110   3.107   1.678   1.242
 6030WAT      O18111   3.303   3.353   1.219
 6030WAT     H118112   3.383   3.303   1.199
 6030WAT     H218113   3.333   3.421   1.280
 6031WAT      O18114   2.916   0.563   5.817
 6031WAT     H118115   2.908   0.471   5.790
 6031WAT     H218116   2.875   0.612   5.747
 6032WAT      O18117   2.729   0.740   6.005
 6032WAT     H118118   2.652   0.693   6.034
 6032WAT     H218119   2.794   0.673   5.988
 6033WAT      O18120   3.131   1.181   5.883
 6033WAT     H118121   3.085   1.104   5.916
 6033WAT     H218122   3.213   1.184   5.934
 6034WAT      O18123   2.129   1.175   6.113
 6034WAT     H118124   2.159   1.086   6.095
 6034WAT     H218125   2.203   1.231   6.090
 6035WAT      O18126   1.972   0.268   5.472
 6035WAT     H118127   1.883   0.302   5.461
 6035WAT     H218128   2.000   0.248   5.382
 6036WAT      O18129   1.768   0.528   6.060
 6036WAT     H118130   1.825   0.451   6.060
 6036WAT     H218131   1.768   0.558   5.969
 6037WAT      O18132   2.754   1.410   5.845
 6037WAT     H118133   2.692   1.455   5.788
 6037WAT     H218134   2.840   1.425   5.805
 6038WAT      O18135   2.673   1.008   6.006
 6038WAT     H118136   2.666   0.914   5.990
 6038WAT     H218137   2.750   1.017   6.063
 6039WAT      O18138   2.776   0.289   6.029
 6039WAT     H118139   2.814   0.201   6.018
 6039WAT     H218140   2.767   0.322   5.940
 6040WAT      O18141   2.374   0.423   6.008
 6040WAT     H118142   2.424   0.473   6.072
 6040WAT     H218143   2.427   0.345   5.991
 6041WAT      O18144   2.841   0.898   5.585
 6041WAT     H118145   2.779   0.945   5.528
 6041WAT     H218146   2.892   0.967   5.626
 6042WAT      O18147   3.178   0.232   5.999
 6042WAT     H118148   3.108   0.261   6.057
 6042WAT     H218149   3.214   0.313   5.963
 6043WAT      O18150   1.777   0.967   5.322
 6043WAT     H118151   1.740   1.016   5.249
 6043WAT     H218152   1.803   1.034   5.385
 6044WAT      O18153   3.485   0.177   6.038
 6044WAT     H118154   3.390   0.180   6.052
 6044WAT     H218155   3.518   0.258   6.077
 6045WAT      O18156   3.093   1.378   6.097
 6045WAT     H118157   3.095   1.338   6.010
 6045WAT     H218158   3.038   1.456   6.087
 6046WAT      O18159   3.223   1.051   5.606
 6046WAT     H118160   3.212   0.956   5.618
 6046WAT     H218161   3.223   1.087   5.695
 6047WAT      O18162   2.777   0.613   5.542
 6047WAT     H118163   2.684   0.607   5.565
 6047WAT     H218164   2.792   0.707   5.530
 6048WAT      O18165   2.776   0.240   5.241
 6048WAT     H118166   2.682   0.257   5.250
 6048WAT     H218167   2.808   0.312   5.187
 6049WAT      O18168   3.180   0.769   5.592
 6049WAT     H118169   3.118   0.736   5.527
 6049WAT     H218170   3.178   0.705   5.663
 6050WAT      O18171   2.338   0.666   5.820
 6050WAT     H118172   2.297   0.595   5.770
 6050WAT     H218173   2.346   0.631   5.909
 6051WAT      O18174   2.385   1.035   6.036
 6051WAT     H118175   2.355   0.974   5.968
 6051WAT     H218176   2.480   1.038   6.025
 6052WAT      O18177   2.998   0.693   5.293
 6052WAT     H118178   3.042   0.610   5.278
 6052WAT     H218179   3.069   0.757   5.301
 6053WAT      O18180   2.809   1.187   5.690
 6053WAT     H118181   2.853   1.262   5.648
 6053WAT     H218182   2.803   1.212   5.782
 6054WAT      O18183   2.008   0.555   5.570
 6054WAT     H118184   1.996   0.628   5.509
 6054WAT     H218185   1.977   0.478   5.522
 6055WAT      O18186   1.896   1.043   5.792
 6055WAT     H118187   1.855   1.057   5.706
 6055WAT     H218188   1.985   1.014   5.771
 6056WAT      O18189   3.075   1.486   5.425
 6056WAT     H118190   3.059   1.457   5.515
 6056WAT     H218191   3.059   1.408   5.372
 6057WAT      O18192   2.323   1.464   5.603
 6057WAT     H118193   2.306   1.372   5.582
 6057WAT     H218194   2.238   1.500   5.627
 6058WAT      O18195   3.046   1.237   5.281
 6058WAT     H118196   2.976   1.237   5.215
 6058WAT     H218197   3.120   1.194   5.238
 6059WAT      O18198   3.002   1.400   5.689
 6059WAT     H118199   3.048   1.321   5.720
 6059WAT     H218200   3.036   1.471   5.743
 6060WAT      O18201   2.234   0.402   5.681
 6060WAT     H118202   2.211   0.380   5.771
 6060WAT     H218203   2.155   0.445   5.646
 6061WAT      O18204   2.957   0.403   5.541
 6061WAT     H118205   2.897   0.475   5.522
 6061WAT     H218206   3.011   0.396   5.463
 6062WAT      O18207   2.817   0.266   5.744
 6062WAT     H118208   2.856   0.298   5.663
 6062WAT     H218209   2.853   0.178   5.755
 6063WAT      O18210   1.740   0.320   5.087
 6063WAT     H118211   1.731   0.414   5.101
 6063WAT     H218212   1.704   0.305   4.999
 6064WAT      O18213   2.526   0.293   5.293
 6064WAT     H118214   2.538   0.289   5.388
 6064WAT     H218215   2.487   0.379   5.277
 6065WAT      O18216   2.427   0.524   5.233
 6065WAT     H118217   2.370   0.479   5.170
 6065WAT     H218218   2.498   0.560   5.179
 6066WAT      O18219   2.181   0.924   5.460
 6066WAT     H118220   2.104   0.870   5.444
 6066WAT     H218221   2.254   0.872   5.426
 6067WAT      O18222   3.257   0.823   6.039
 6067WAT     H118223   3.329   0.873   6.000
 6067WAT     H218224   3.237   0.755   5.975
 6068WAT      O18225   3.075   0.400   5.283
 6068WAT     H118226   3.164   0.431   5.266
 6068WAT     H218227   3.072   0.313   5.244
 6069WAT      O18228   2.186   0.890   5.824
 6069WAT     H118229   2.238   0.810   5.818
 6069WAT     H218230   2.141   0.884   5.908
 6070WAT      O18231   2.674   1.017   5.351
 6070WAT     H118232   2.709   1.092   5.302
 6070WAT     H218233   2.592   1.048   5.387
 6071WAT      O18234   3.302   0.531   5.230
 6071WAT     H118235   3.294   0.574   5.145
 6071WAT     H218236   3.374   0.577   5.273
 6072WAT      O18237   3.405   1.216   5.503
 6072WAT     H118238   3.341   1.151   5.530
 6072WAT     H218239   3.366   1.257   5.425
 6073WAT      O18240   2.963   0.949   5.888
 6073WAT     H118241   2.998   0.890   5.822
 6073WAT     H218242   2.874   0.917   5.905
 6074WAT      O18243   2.571   1.025   5.628
 6074WAT     H118244   2.640   1.080   5.666
 6074WAT     H218245   2.493   1.080   5.632
 6075WAT      O18246   1.785   0.587   5.177
 6075WAT     H118247   1.872   0.615   5.206
 6075WAT     H218248   1.736   0.668   5.166
 6076WAT      O18249   2.502   0.726   5.590
 6076WAT     H118250   2.547   0.807   5.612
 6076WAT     H218251   2.467   0.694   5.673
 6077WAT      O18252   3.244   1.106   5.157
 6077WAT     H118253   3.221   1.034   5.216
 6077WAT     H218254   3.205   1.081   5.073
 6078WAT      O18255   1.822   1.508   5.234
 6078WAT     H118256   1.858   1.568   5.169
 6078WAT     H218257   1.808   1.563   5.311
 6079WAT      O18258   3.202   0.897   5.323
 6079WAT     H118259   3.173   0.943   5.402
 6079WAT     H218260   3.282   0.851   5.350
 6080WAT      O18261   2.424   1.247   5.316
 6080WAT     H118262   2.423   1.320   5.254
 6080WAT     H218263   2.332   1.222   5.325
 6081WAT      O18264   1.984   0.769   5.390
 6081WAT     H118265   1.923   0.843   5.391
 6081WAT     H218266   2.031   0.778   5.308
 6082WAT      O18267   2.722   1.253   5.182
 6082WAT     H118268   2.732   1.232   5.089
 6082WAT     H218269   2.632   1.227   5.203
 6083WAT      O18270   2.475   0.309   5.580
 6083WAT     H118271   2.404   0.356   5.624
 6083WAT     H218272   2.503   0.243   5.644
 6084WAT      O18273   2.586   1.505   5.652
 6084WAT     H118274   2.612   1.501   5.559
 6084WAT     H218275   2.492   1.492   5.651
 6085WAT      O18276   3.187   0.597   5.809
 6085WAT     H118277   3.093   0.598   5.827
 6085WAT     H218278   3.218   0.518   5.854
 6086WAT      O18279   2.185   0.765   5.165
 6086WAT     H118280   2.261   0.754   5.221
 6086WAT     H218281   2.193   0.695   5.100
 6087WAT      O18282   2.054   0.508   5.234
 6087WAT     H118283   2.062   0.413   5.245
 6087WAT     H218284   2.143   0.541   5.244
 6088WAT      O18285   3.387   1.314   5.977
 6088WAT     H118286   3.400   1.396   6.024
 6088WAT     H218287   3.474   1.293   5.942
 6089WAT      O18288   2.134   1.523   5.944
 6089WAT     H118289   2.208   1.468   5.971
 6089WAT     H218290   2.173   1.610   5.930
 6090WAT      O18291   1.823   1.130   5.531
 6090WAT     H118292   1.730   1.154   5.530
 6090WAT     H218293   1.869   1.213   5.519
 6091WAT      O18294   2.445   1.440   5.126
 6091WAT     H118295   2.525   1.469   5.081
 6091WAT     H218296   2.393   1.397   5.058
 6092WAT      O18297   3.351   1.363   5.268
 6092WAT     H118298   3.322   1.322   5.187
 6092WAT     H218299   3.331   1.456   5.256
 6093WAT      O18300   2.497   0.962   5.113
 6093WAT     H118301   2.487   0.901   5.185
 6093WAT     H218302   2.480   0.910   5.034
 6094WAT      O18303   2.821   0.869   5.173
 6094WAT     H118304   2.766   0.913   5.237
 6094WAT     H218305   2.883   0.818   5.225
 6095WAT      O18306   2.388   0.764   5.363
 6095WAT     H118307   2.430   0.748   5.447
 6095WAT     H218308   2.400   0.683   5.313
 6096WAT      O18309   2.639   0.667   5.087
 6096WAT     H118310   2.691   0.595   5.051
 6096WAT     H218311   2.704   0.731   5.117
 6097WAT      O18312   2.278   0.372   5.057
 6097WAT     H118313   2.257   0.285   5.093
 6097WAT     H218314   2.260   0.363   4.963
 6098WAT      O18315   2.696   1.475   5.316
 6098WAT     H118316   2.785   1.509   5.319
 6098WAT     H218317   2.699   1.403   5.254
 6099WAT      O18318   2.060   1.012   5.139
 6099WAT     H118319   2.103   1.067   5.205
 6099WAT     H218320   2.108   0.930   5.140
 6100WAT      O18321   1.781   1.291   5.884
 6100WAT     H118322   1.814   1.204   5.861
 6100WAT     H218323   1.824   1.312   5.968
 6101WAT      O18324   2.241   1.124   5.650
 6101WAT     H118325   2.211   1.112   5.741
 6101WAT     H218326   2.230   1.038   5.610
 6102WAT      O18327   3.518   1.102   5.121
 6102WAT     H118328   3.435   1.109   5.168
 6102WAT     H218329   3.535   1.191   5.090
 6103WAT      O18330   3.463   0.777   5.371
 6103WAT     H118331   3.539   0.834   5.382
 6103WAT     H218332   3.465   0.720   5.448
 6104WAT      O18333   1.813   0.629   5.794
 6104WAT     H118334   1.748   0.602   5.730
 6104WAT     H218335   1.897   0.618   5.749
 6105WAT      O18336   3.564   0.862   5.856
 6105WAT     H118337   3.601   0.784   5.815
 6105WAT     H218338   3.628   0.931   5.838
 6106WAT      O18339   3.468   0.806   5.087
 6106WAT     H118340   3.496   0.897   5.074
 6106WAT     H218341   3.450   0.800   5.180
 6107WAT      O18342   3.458   0.600   5.586
 6107WAT     H118343   3.421   0.523   5.543
 6107WAT     H218344   3.385   0.638   5.635
 6108WAT      O18345   1.735   0.350   5.388
 6108WAT     H118346   1.644   0.376   5.371
 6108WAT     H218347   1.783   0.377   5.310
 6109WAT      O18348   3.386   0.422   5.916
 6109WAT     H118349   3.438   0.373   5.853
 6109WAT     H218350   3.444   0.436   5.991
 6110WAT      O18351   1.989   0.256   5.179
 6110WAT     H118352   2.060   0.214   5.131
 6110WAT     H218353   1.917   0.262   5.116
 6111WAT      O18354   3.335   0.348   5.510
 6111WAT     H118355   3.384   0.325   5.589
 6111WAT     H218356   3.315   0.264   5.468
 6112WAT      O18357   3.268   1.476   5.749
 6112WAT     H118358   3.328   1.444   5.682
 6112WAT     H218359   3.294   1.428   5.829
 6113WAT      O18360   3.323   1.541   6.132
 6113WAT     H118361   3.277   1.616   6.095
 6113WAT     H218362   3.260   1.469   6.127
 6114WAT      O18363   2.366   1.372   6.050
 6114WAT     H118364   2.418   1.310   5.997
 6114WAT     H218365   2.431   1.422   6.099
 6115WAT      O18366   1.834   1.482   5.692
 6115WAT     H118367   1.817   1.419   5.762
 6115WAT     H218368   1.747   1.502   5.657
 6116WAT      O18369   1.995   1.351   5.437
 6116WAT     H118370   1.942   1.389   5.367
 6116WAT     H218371   1.987   1.414   5.509
 6117WAT      O18372   3.470   1.507   5.569
 6117WAT     H118373   3.488   1.438   5.505
 6117WAT     H218374   3.400   1.560   5.530
 6118WAT      O18375   2.254   1.546   5.324
 6118WAT     H118376   2.328   1.518   5.270
 6118WAT     H218377   2.280   1.522   5.413
 6119WAT      O18378   2.171   1.158   5.325
 6119WAT     H118379   2.108   1.205   5.380
 6119WAT     H218380   2.182   1.073   5.368
 6120WAT      O18381   2.916   0.563   3.940
 6120WAT     H118382   2.908   0.471   3.913
 6120WAT     H218383   2.875   0.612   3.869
 6121WAT      O18384   2.729   0.740   4.128
 6121WAT     H118385   2.652   0.693   4.157
 6121WAT     H218386   2.794   0.673   4.111
 6122WAT      O18387   2.131   0.772   4.216
 6122WAT     H118388   2.048   0.746   4.256
 6122WAT     H218389   2.192   0.779   4.289
 6123WAT      O18390   3.131   1.181   4.006
 6123WAT     H118391   3.085   1.104   4.039
 6123WAT     H218392   3.213   1.184   4.057
 6124WAT      O18393   2.129   1.175   4.235
 6124WAT     H118394   2.159   1.086   4.217
 6124WAT     H218395   2.203   1.231   4.213
 6125WAT      O18396   1.972   0.268   3.594
 6125WAT     H118397   1.883   0.302   3.584
 6125WAT     H218398   2.000   0.248   3.505
 6126WAT      O18399   1.768   0.528   4.183
 6126WAT     H118400   1.825   0.451   4.183
 6126WAT     H218401   1.768   0.558   4.092
 6127WAT      O18402   2.754   1.410   3.968
 6127WAT     H118403   2.692   1.455   3.911
 6127WAT     H218404   2.840   1.425   3.928
 6128WAT      O18405   2.673   1.008   4.129
 6128WAT     H118406   2.666   0.914   4.113
 6128WAT     H218407   2.750   1.017   4.186
 6129WAT      O18408   2.776   0.289   4.151
 6129WAT     H118409   2.814   0.201   4.140
 6129WAT     H218410   2.767   0.322   4.062
 6130WAT      O18411   1.954   0.318   4.222
 6130WAT     H118412   2.022   0.345   4.284
 6130WAT     H218413   1.923   0.234   4.255
 6131WAT      O18414   2.374   0.423   4.131
 6131WAT     H118415   2.424   0.473   4.195
 6131WAT     H218416   2.427   0.345   4.113
 6132WAT      O18417   3.584   0.240   4.501
 6132WAT     H118418   3.513   0.279   4.449
 6132WAT     H218419   3.610   0.309   4.561
 6133WAT      O18420   2.841   0.898   3.707
 6133WAT     H118421   2.779   0.945   3.651
 6133WAT     H218422   2.892   0.967   3.749
 6134WAT      O18423   2.327   0.851   4.375
 6134WAT     H118424   2.294   0.914   4.439
 6134WAT     H218425   2.345   0.903   4.297
 6135WAT      O18426   3.178   0.232   4.122
 6135WAT     H118427   3.108   0.261   4.180
 6135WAT     H218428   3.214   0.313   4.086
 6136WAT      O18429   2.248   1.048   4.557
 6136WAT     H118430   2.310   1.115   4.529
 6136WAT     H218431   2.162   1.089   4.548
 6137WAT      O18432   1.777   0.967   3.445
 6137WAT     H118433   1.740   1.016   3.372
 6137WAT     H218434   1.803   1.034   3.508
 6138WAT      O18435   3.340   1.194   4.348
 6138WAT     H118436   3.272   1.261   4.347
 6138WAT     H218437   3.394   1.214   4.272
 6139WAT      O18438   3.485   0.177   4.161
 6139WAT     H118439   3.390   0.180   4.174
 6139WAT     H218440   3.518   0.258   4.200
 6140WAT      O18441   3.093   1.378   4.220
 6140WAT     H118442   3.095   1.338   4.133
 6140WAT     H218443   3.038   1.456   4.209
 6141WAT      O18444   3.223   1.051   3.729
 6141WAT     H118445   3.212   0.956   3.741
 6141WAT     H218446   3.223   1.087   3.817
 6142WAT      O18447   3.033   0.869   4.352
 6142WAT     H118448   3.075   0.847   4.269
 6142WAT     H218449   3.106   0.895   4.410
 6143WAT      O18450   2.777   0.613   3.664
 6143WAT     H118451   2.684   0.607   3.687
 6143WAT     H218452   2.792   0.707   3.653
 6144WAT      O18453   2.776   0.240   3.364
 6144WAT     H118454   2.682   0.257   3.372
 6144WAT     H218455   2.808   0.312   3.309
 6145WAT      O18456   3.428   0.709   4.362
 6145WAT     H118457   3.345   0.716   4.314
 6145WAT     H218458   3.487   0.767   4.315
 6146WAT      O18459   3.180   0.769   3.715
 6146WAT     H118460   3.118   0.736   3.650
 6146WAT     H218461   3.178   0.705   3.785
 6147WAT      O18462   3.124   0.387   4.456
 6147WAT     H118463   3.083   0.470   4.482
 6147WAT     H218464   3.051   0.329   4.437
 6148WAT      O18465   2.338   0.666   3.942
 6148WAT     H118466   2.297   0.595   3.893
 6148WAT     H218467   2.346   0.631   4.031
 6149WAT      O18468   2.385   1.035   4.159
 6149WAT     H118469   2.355   0.974   4.091
 6149WAT     H218470   2.480   1.038   4.148
 6150WAT      O18471   2.209   0.343   4.320
 6150WAT     H118472   2.264   0.354   4.243
 6150WAT     H218473   2.260   0.381   4.392
 6151WAT      O18474   3.193   1.392   4.525
 6151WAT     H118475   3.146   1.473   4.506
 6151WAT     H218476   3.125   1.327   4.540
 6152WAT      O18477   2.294   1.008   4.824
 6152WAT     H118478   2.204   1.031   4.849
 6152WAT     H218479   2.296   1.021   4.729
 6153WAT      O18480   2.998   0.693   3.415
 6153WAT     H118481   3.042   0.610   3.401
 6153WAT     H218482   3.069   0.757   3.424
 6154WAT      O18483   2.176   0.696   4.681
 6154WAT     H118484   2.163   0.783   4.718
 6154WAT     H218485   2.088   0.661   4.667
 6155WAT      O18486   2.809   1.187   3.812
 6155WAT     H118487   2.853   1.262   3.771
 6155WAT     H218488   2.803   1.212   3.904
 6156WAT      O18489   2.356   1.290   4.902
 6156WAT     H118490   2.353   1.330   4.816
 6156WAT     H218491   2.340   1.197   4.886
 6157WAT      O18492   2.008   0.555   3.692
 6157WAT     H118493   1.996   0.628   3.631
 6157WAT     H218494   1.977   0.478   3.645
 6158WAT      O18495   3.551   1.368   5.032
 6158WAT     H118496   3.599   1.416   5.100
 6158WAT     H218497   3.613   1.361   4.959
 6159WAT      O18498   1.772   0.873   4.273
 6159WAT     H118499   1.779   0.886   4.179
 6159WAT     H218500   1.833   0.802   4.292
 6160WAT      O18501   1.896   1.043   3.914
 6160WAT     H118502   1.855   1.057   3.829
 6160WAT     H218503   1.985   1.014   3.894
 6161WAT      O18504   3.492   1.087   4.748
 6161WAT     H118505   3.504   1.063   4.656
 6161WAT     H218506   3.496   1.004   4.795
 6162WAT      O18507   2.878   1.457   4.605
 6162WAT     H118508   2.929   1.449   4.685
 6162WAT     H218509   2.794   1.492   4.634
 6163WAT      O18510   3.075   1.486   3.548
 6163WAT     H118511   3.059   1.457   3.638
 6163WAT     H218512   3.059   1.408   3.494
 6164WAT      O18513   2.323   1.464   3.725
 6164WAT     H118514   2.306   1.372   3.704
 6164WAT     H218515   2.238   1.500   3.749
 6165WAT      O18516   3.046   1.237   3.404
 6165WAT     H118517   2.976   1.237   3.338
 6165WAT     H218518   3.120   1.194   3.361
 6166WAT      O18519   3.002   1.400   3.811
 6166WAT     H118520   3.048   1.321   3.843
 6166WAT     H218521   3.036   1.471   3.866
 6167WAT      O18522   3.477   0.293   4.844
 6167WAT     H118523   3.415   0.343   4.792
 6167WAT     H218524   3.445   0.202   4.839
 6168WAT      O18525   1.777   0.977   4.527
 6168WAT     H118526   1.794   0.930   4.445
 6168WAT     H218527   1.824   0.926   4.594
 6169WAT      O18528   3.183   0.299   4.704
 6169WAT     H118529   3.098   0.269   4.736
 6169WAT     H218530   3.167   0.323   4.613
 6170WAT      O18531   2.893   0.449   4.914
 6170WAT     H118532   2.925   0.365   4.880
 6170WAT     H218533   2.971   0.501   4.929
 6171WAT      O18534   2.234   0.402   3.804
 6171WAT     H118535   2.211   0.380   3.894
 6171WAT     H218536   2.155   0.445   3.769
 6172WAT      O18537   2.957   0.403   3.663
 6172WAT     H118538   2.897   0.475   3.645
 6172WAT     H218539   3.011   0.396   3.585
 6173WAT      O18540   2.478   0.492   4.870
 6173WAT     H118541   2.468   0.398   4.855
 6173WAT     H218542   2.562   0.514   4.831
 6174WAT      O18543   2.817   0.266   3.866
 6174WAT     H118544   2.856   0.298   3.785
 6174WAT     H218545   2.853   0.178   3.878
 6175WAT      O18546   1.740   0.320   3.210
 6175WAT     H118547   1.731   0.414   3.224
 6175WAT     H218548   1.704   0.305   3.122
 6176WAT      O18549   2.876   0.525   4.276
 6176WAT     H118550   2.803   0.576   4.311
 6176WAT     H218551   2.836   0.444   4.246
 6177WAT      O18552   2.526   0.293   3.416
 6177WAT     H118553   2.538   0.289   3.510
 6177WAT     H218554   2.487   0.379   3.400
 6178WAT      O18555   2.427   0.524   3.355
 6178WAT     H118556   2.370   0.479   3.293
 6178WAT     H218557   2.498   0.560   3.302
 6179WAT      O18558   1.935   0.914   4.743
 6179WAT     H118559   1.896   0.850   4.803
 6179WAT     H218560   1.966   0.985   4.800
 6180WAT      O18561   2.550   0.599   4.291
 6180WAT     H118562   2.586   0.552   4.366
 6180WAT     H218563   2.531   0.686   4.325
 6181WAT      O18564   2.329   0.503   4.523
 6181WAT     H118565   2.298   0.591   4.545
 6181WAT     H218566   2.424   0.509   4.527
 6182WAT      O18567   2.181   0.924   3.583
 6182WAT     H118568   2.104   0.870   3.567
 6182WAT     H218569   2.254   0.872   3.549
 6183WAT      O18570   3.257   0.823   4.162
 6183WAT     H118571   3.329   0.873   4.123
 6183WAT     H218572   3.237   0.755   4.097
 6184WAT      O18573   2.795   0.830   4.751
 6184WAT     H118574   2.789   0.738   4.725
 6184WAT     H218575   2.732   0.840   4.822
 6185WAT      O18576   3.075   0.400   3.406
 6185WAT     H118577   3.164   0.431   3.388
 6185WAT     H218578   3.072   0.313   3.367
 6186WAT      O18579   2.186   0.890   3.946
 6186WAT     H118580   2.238   0.810   3.941
 6186WAT     H218581   2.141   0.884   4.031
 6187WAT      O18582   2.674   1.017   3.474
 6187WAT     H118583   2.709   1.092   3.424
 6187WAT     H218584   2.592   1.048   3.510
 6188WAT      O18585   1.934   0.587   4.638
 6188WAT     H118586   1.898   0.654   4.696
 6188WAT     H218587   1.905   0.504   4.675
 6189WAT      O18588   2.254   0.633   4.926
 6189WAT     H118589   2.224   0.647   4.836
 6189WAT     H218590   2.331   0.577   4.917
 6190WAT      O18591   2.789   1.113   4.726
 6190WAT     H118592   2.790   1.019   4.704
 6190WAT     H218593   2.718   1.121   4.790
 6191WAT      O18594   3.302   0.531   3.353
 6191WAT     H118595   3.294   0.574   3.268
 6191WAT     H218596   3.374   0.577   3.396
 6192WAT      O18597   3.410   0.777   4.660
 6192WAT     H118598   3.337   0.836   4.641
 6192WAT     H218599   3.462   0.776   4.580
 6193WAT      O18600   3.405   1.216   3.625
 6193WAT     H118601   3.341   1.151   3.653
 6193WAT     H218602   3.366   1.257   3.548
 6194WAT      O18603   2.963   0.949   4.010
 6194WAT     H118604   2.998   0.890   3.944
 6194WAT     H218605   2.874   0.917   4.027
 6195WAT      O18606   2.571   1.025   3.751
 6195WAT     H118607   2.640   1.080   3.789
 6195WAT     H218608   2.493   1.080   3.754
 6196WAT      O18609   1.785   0.587   3.300
 6196WAT     H118610   1.872   0.615   3.328
 6196WAT     H218611   1.736   0.668   3.289
 6197WAT      O18612   2.502   0.726   3.712
 6197WAT     H118613   2.547   0.807   3.735
 6197WAT     H218614   2.467   0.694   3.795
 6198WAT      O18615   2.732   1.277   4.435
 6198WAT     H118616   2.796   1.297   4.503
 6198WAT     H218617   2.768   1.201   4.390
 6199WAT      O18618   2.859   1.077   4.307
 6199WAT     H118619   2.923   1.007   4.318
 6199WAT     H218620   2.912   1.155   4.289
 6200WAT      O18621   3.244   1.106   3.279
 6200WAT     H118622   3.221   1.034   3.338
 6200WAT     H218623   3.205   1.081   3.195
 6201WAT      O18624   3.037   1.157   4.627
 6201WAT     H118625   3.070   1.216   4.695
 6201WAT     H218626   2.945   1.144   4.650
 6202WAT      O18627   1.822   1.508   3.357
 6202WAT     H118628   1.858   1.568   3.291
 6202WAT     H218629   1.808   1.563   3.434
 6203WAT      O18630   3.202   0.897   3.445
 6203WAT     H118631   3.173   0.943   3.524
 6203WAT     H218632   3.282   0.851   3.472
 6204WAT      O18633   1.820   1.335   4.804
 6204WAT     H118634   1.831   1.241   4.790
 6204WAT     H218635   1.755   1.361   4.739
 6205WAT      O18636   2.620   1.162   4.944
 6205WAT     H118637   2.588   1.090   4.999
 6205WAT     H218638   2.552   1.230   4.951
 6206WAT      O18639   2.424   1.247   3.438
 6206WAT     H118640   2.423   1.320   3.377
 6206WAT     H218641   2.332   1.222   3.448
 6207WAT      O18642   1.984   0.769   3.513
 6207WAT     H118643   1.923   0.843   3.514
 6207WAT     H218644   2.031   0.778   3.430
 6208WAT      O18645   2.722   1.253   3.305
 6208WAT     H118646   2.732   1.232   3.212
 6208WAT     H218647   2.632   1.227   3.325
 6209WAT      O18648   2.475   0.309   3.703
 6209WAT     H118649   2.404   0.356   3.747
 6209WAT     H218650   2.503   0.243   3.766
 6210WAT      O18651   2.637   0.451   4.503
 6210WAT     H118652   2.687   0.498   4.569
 6210WAT     H218653   2.651   0.358   4.524
 6211WAT      O18654   2.586   1.505   3.774
 6211WAT     H118655   2.612   1.501   3.682
 6211WAT     H218656   2.492   1.492   3.773
 6212WAT      O18657   3.187   0.597   3.932
 6212WAT     H118658   3.093   0.598   3.949
 6212WAT     H218659   3.218   0.518   3.976
 6213WAT      O18660   2.185   0.765   3.288
 6213WAT     H118661   2.261   0.754   3.344
 6213WAT     H218662   2.193   0.695   3.223
 6214WAT      O18663   2.054   0.508   3.356
 6214WAT     H118664   2.062   0.413   3.367
 6214WAT     H218665   2.143   0.541   3.367
 6215WAT      O18666   3.387   1.314   4.099
 6215WAT     H118667   3.400   1.396   4.146
 6215WAT     H218668   3.474   1.293   4.064
 6216WAT      O18669   2.134   1.523   4.066
 6216WAT     H118670   2.208   1.468   4.093
 6216WAT     H218671   2.173   1.610   4.052
 6217WAT      O18672   1.823   1.130   3.654
 6217WAT     H118673   1.730   1.154   3.653
 6217WAT     H218674   1.869   1.213   3.642
 6218WAT      O18675   2.035   1.441   4.985
 6218WAT     H118676   2.115   1.474   5.027
 6218WAT     H218677   1.984   1.405   5.057
 6219WAT      O18678   2.445   1.440   3.249
 6219WAT     H118679   2.525   1.469   3.203
 6219WAT     H218680   2.393   1.397   3.181
 6220WAT      O18681   2.919   1.052   4.980
 6220WAT     H118682   2.858   1.055   4.906
 6220WAT     H218683   2.888   0.979   5.034
 6221WAT      O18684   3.062   1.425   4.841
 6221WAT     H118685   3.157   1.417   4.836
 6221WAT     H218686   3.047   1.492   4.908
 6222WAT      O18687   3.351   1.363   3.391
 6222WAT     H118688   3.322   1.322   3.310
 6222WAT     H218689   3.331   1.456   3.379
 6223WAT      O18690   1.807   0.690   4.880
 6223WAT     H118691   1.857   0.632   4.937
 6223WAT     H218692   1.733   0.719   4.933
 6224WAT      O18693   2.497   0.962   3.235
 6224WAT     H118694   2.487   0.901   3.308
 6224WAT     H218695   2.480   0.910   3.157
 6225WAT      O18696   2.512   0.831   4.833
 6225WAT     H118697   2.436   0.888   4.825
 6225WAT     H218698   2.531   0.802   4.744
 6226WAT      O18699   2.821   0.869   3.296
 6226WAT     H118700   2.766   0.913   3.360
 6226WAT     H218701   2.883   0.818   3.348
 6227WAT      O18702   3.227   1.004   4.889
 6227WAT     H118703   3.301   1.038   4.838
 6227WAT     H218704   3.150   1.021   4.833
 6228WAT      O18705   2.010   0.505   4.969
 6228WAT     H118706   2.014   0.475   5.060
 6228WAT     H218707   2.096   0.545   4.953
 6229WAT      O18708   2.388   0.764   3.485
 6229WAT     H118709   2.430   0.748   3.569
 6229WAT     H218710   2.400   0.683   3.436
 6230WAT      O18711   2.204   0.362   4.766
 6230WAT     H118712   2.151   0.313   4.703
 6230WAT     H218713   2.271   0.405   4.712
 6231WAT      O18714   2.639   0.667   3.210
 6231WAT     H118715   2.691   0.595   3.173
 6231WAT     H218716   2.704   0.731   3.240
 6232WAT      O18717   3.094   0.809   4.742
 6232WAT     H118718   3.135   0.825   4.827
 6232WAT     H218719   3.001   0.822   4.759
 6233WAT      O18720   3.141   0.543   4.943
 6233WAT     H118721   3.199   0.468   4.934
 6233WAT     H218722   3.159   0.596   4.865
 6234WAT      O18723   2.570   0.804   4.539
 6234WAT     H118724   2.612   0.889   4.522
 6234WAT     H218725   2.478   0.818   4.516
 6235WAT      O18726   2.804   0.578   4.678
 6235WAT     H118727   2.816   0.518   4.752
 6235WAT     H218728   2.890   0.581   4.636
 6236WAT      O18729   3.038   0.633   4.535
 6236WAT     H118730   2.985   0.685   4.475
 6236WAT     H218731   3.072   0.696   4.598
 6237WAT      O18732   2.278   0.372   3.180
 6237WAT     H118733   2.257   0.285   3.216
 6237WAT     H218734   2.260   0.363   3.086
 6238WAT      O18735   2.355   1.435   4.651
 6238WAT     H118736   2.301   1.507   4.619
 6238WAT     H218737   2.381   1.387   4.572
 6239WAT      O18738   2.481   0.232   4.803
 6239WAT     H118739   2.540   0.201   4.872
 6239WAT     H218740   2.399   0.185   4.819
 6240WAT      O18741   2.641   1.558   4.677
 6240WAT     H118742   2.633   1.649   4.707
 6240WAT     H218743   2.551   1.527   4.674
 6241WAT      O18744   2.696   1.475   3.439
 6241WAT     H118745   2.785   1.509   3.441
 6241WAT     H218746   2.699   1.403   3.376
 6242WAT      O18747   2.060   1.012   3.262
 6242WAT     H118748   2.103   1.067   3.327
 6242WAT     H218749   2.108   0.930   3.263
 6243WAT      O18750   1.781   1.291   4.007
 6243WAT     H118751   1.814   1.204   3.984
 6243WAT     H218752   1.824   1.312   4.090
 6244WAT      O18753   2.241   1.124   3.773
 6244WAT     H118754   2.211   1.112   3.863
 6244WAT     H218755   2.230   1.038   3.732
 6245WAT      O18756   1.830   1.378   4.281
 6245WAT     H118757   1.786   1.396   4.364
 6245WAT     H218758   1.887   1.454   4.267
 6246WAT      O18759   3.394   1.328   4.710
 6246WAT     H118760   3.334   1.334   4.635
 6246WAT     H218761   3.407   1.234   4.723
 6247WAT      O18762   3.518   1.102   3.243
 6247WAT     H118763   3.435   1.109   3.290
 6247WAT     H218764   3.535   1.191   3.213
 6248WAT      O18765   3.463   0.777   3.494
 6248WAT     H118766   3.539   0.834   3.504
 6248WAT     H218767   3.465   0.720   3.571
 6249WAT      O18768   1.813   0.629   3.917
 6249WAT     H118769   1.748   0.602   3.852
 6249WAT     H218770   1.897   0.618   3.872
 6250WAT      O18771   3.564   0.862   3.978
 6250WAT     H118772   3.601   0.784   3.937
 6250WAT     H218773   3.628   0.931   3.960
 6251WAT      O18774   3.262   1.001   4.519
 6251WAT     H118775   3.181   1.044   4.546
 6251WAT     H218776   3.303   1.062   4.458
 6252WAT      O18777   3.468   0.806   3.209
 6252WAT     H118778   3.496   0.897   3.197
 6252WAT     H218779   3.450   0.800   3.303
 6253WAT      O18780   3.458   0.600   3.709
 6253WAT     H118781   3.421   0.523   3.665
 6253WAT     H218782   3.385   0.638   3.757
 6254WAT      O18783   1.917   0.668   4.371
 6254WAT     H118784   1.954   0.659   4.459
 6254WAT     H218785   1.860   0.591   4.361
 6255WAT      O18786   3.397   0.514   4.672
 6255WAT     H118787   3.374   0.492   4.582
 6255WAT     H218788   3.423   0.606   4.668
 6256WAT      O18789   1.872   0.359   4.761
 6256WAT     H118790   1.783   0.355   4.795
 6256WAT     H218791   1.926   0.379   4.838
 6257WAT      O18792   1.735   0.350   3.511
 6257WAT     H118793   1.644   0.376   3.494
 6257WAT     H218794   1.783   0.377   3.433
 6258WAT      O18795   3.386   0.422   4.039
 6258WAT     H118796   3.438   0.373   3.976
 6258WAT     H218797   3.444   0.436   4.113
 6259WAT      O18798   3.404   0.431   4.391
 6259WAT     H118799   3.309   0.427   4.402
 6259WAT     H218800   3.422   0.522   4.367
 6260WAT      O18801   1.989   0.256   3.302
 6260WAT     H118802   2.060   0.214   3.253
 6260WAT     H218803   1.917   0.262   3.239
 6261WAT      O18804   3.335   0.348   3.633
 6261WAT     H118805   3.384   0.325   3.711
 6261WAT     H218806   3.315   0.264   3.591
 6262WAT      O18807   3.268   1.476   3.872
 6262WAT     H118808   3.328   1.444   3.804
 6262WAT     H218809   3.294   1.428   3.951
 6263WAT      O18810   2.059   1.119   4.887
 6263WAT     H118811   2.054   1.082   4.975
 6263WAT     H218812   2.072   1.213   4.901
 6264WAT      O18813   2.429   1.274   4.447
 6264WAT     H118814   2.405   1.301   4.358
 6264WAT     H218815   2.523   1.292   4.453
 6265WAT      O18816   3.555   1.476   4.527
 6265WAT     H118817   3.505   1.516   4.455
 6265WAT     H218818   3.494   1.414   4.567
 6266WAT      O18819   2.042   1.414   4.599
 6266WAT     H118820   1.983   1.400   4.673
 6266WAT     H218821   2.042   1.330   4.552
 6267WAT      O18822   3.323   1.541   4.255
 6267WAT     H118823   3.277   1.616   4.218
 6267WAT     H218824   3.260   1.469   4.249
 6268WAT      O18825   2.006   1.150   4.494
 6268WAT     H118826   1.933   1.088   4.487
 6268WAT     H218827   2.012   1.190   4.407
 6269WAT      O18828   2.366   1.372   4.173
 6269WAT     H118829   2.418   1.310   4.120
 6269WAT     H218830   2.431   1.422   4.222
 6270WAT      O18831   2.640   1.461   4.255
 6270WAT     H118832   2.669   1.435   4.168
 6270WAT     H218833   2.691   1.405   4.314
 6271WAT      O18834   1.834   1.482   3.815
 6271WAT     H118835   1.817   1.419   3.885
 6271WAT     H218836   1.747   1.502   3.780
 6272WAT      O18837   1.995   1.351   3.559
 6272WAT     H118838   1.942   1.389   3.489
 6272WAT     H218839   1.987   1.414   3.632
 6273WAT      O18840   2.647   1.553   4.992
 6273WAT     H118841   2.739   1.529   4.996
 6273WAT     H218842   2.645   1.636   4.944
 6274WAT      O18843   3.470   1.507   3.692
 6274WAT     H118844   3.488   1.438   3.627
 6274WAT     H218845   3.400   1.560   3.652
 6275WAT      O18846   2.254   1.546   3.447
 6275WAT     H118847   2.328   1.518   3.392
 6275WAT     H218848   2.280   1.522   3.536
 6276WAT      O18849   2.171   1.158   3.447
 6276WAT     H118850   2.108   1.205   3.502
 6276WAT     H218851   2.182   1.073   3.491
 6277WAT      O18852   3.303   1.475   4.974
 6277WAT     H118853   3.383   1.426   4.954
 6277WAT     H218854   3.333   1.543   5.035
 6278WAT      O18855   2.916   0.563   2.062
 6278WAT     H118856   2.908   0.471   2.035
 6278WAT     H218857   2.875   0.612   1.992
 6279WAT      O18858   2.729   0.740   2.251
 6279WAT     H118859   2.652   0.693   2.280
 6279WAT     H218860   2.794   0.673   2.233
 6280WAT      O18861   2.131   0.772   2.338
 6280WAT     H118862   2.048   0.746   2.378
 6280WAT     H218863   2.192   0.779   2.412
 6281WAT      O18864   3.131   1.181   2.129
 6281WAT     H118865   3.085   1.104   2.161
 6281WAT     H218866   3.213   1.184   2.179
 6282WAT      O18867   2.129   1.175   2.358
 6282WAT     H118868   2.159   1.086   2.340
 6282WAT     H218869   2.203   1.231   2.335
 6283WAT      O18870   1.972   0.268   1.717
 6283WAT     H118871   1.883   0.302   1.707
 6283WAT     H218872   2.000   0.248   1.628
 6284WAT      O18873   1.768   0.528   2.305
 6284WAT     H118874   1.825   0.451   2.305
 6284WAT     H218875   1.768   0.558   2.214
 6285WAT      O18876   2.754   1.410   2.091
 6285WAT     H118877   2.692   1.455   2.034
 6285WAT     H218878   2.840   1.425   2.050
 6286WAT      O18879   2.673   1.008   2.251
 6286WAT     H118880   2.666   0.914   2.235
 6286WAT     H218881   2.750   1.017   2.308
 6287WAT      O18882   2.776   0.289   2.274
 6287WAT     H118883   2.814   0.201   2.263
 6287WAT     H218884   2.767   0.322   2.185
 6288WAT      O18885   1.954   0.318   2.345
 6288WAT     H118886   2.022   0.345   2.407
 6288WAT     H218887   1.923   0.234   2.378
 6289WAT      O18888   2.374   0.423   2.253
 6289WAT     H118889   2.424   0.473   2.317
 6289WAT     H218890   2.427   0.345   2.236
 6290WAT      O18891   3.584   0.240   2.624
 6290WAT     H118892   3.513   0.279   2.572
 6290WAT     H218893   3.610   0.309   2.684
 6291WAT      O18894   2.841   0.898   1.830
 6291WAT     H118895   2.779   0.945   1.774
 6291WAT     H218896   2.892   0.967   1.872
 6292WAT      O18897   2.327   0.851   2.498
 6292WAT     H118898   2.294   0.914   2.562
 6292WAT     H218899   2.345   0.903   2.420
 6293WAT      O18900   3.178   0.232   2.245
 6293WAT     H118901   3.108   0.261   2.303
 6293WAT     H218902   3.214   0.313   2.208
 6294WAT      O18903   2.248   1.048   2.679
 6294WAT     H118904   2.310   1.115   2.651
 6294WAT     H218905   2.162   1.089   2.670
 6295WAT      O18906   1.777   0.967   1.567
 6295WAT     H118907   1.740   1.016   1.494
 6295WAT     H218908   1.803   1.034   1.630
 6296WAT      O18909   3.340   1.194   2.471
 6296WAT     H118910   3.272   1.261   2.470
 6296WAT     H218911   3.394   1.214   2.394
 6297WAT      O18912   3.485   0.177   2.284
 6297WAT     H118913   3.390   0.180   2.297
 6297WAT     H218914   3.518   0.258   2.322
 6298WAT      O18915   3.093   1.378   2.342
 6298WAT     H118916   3.095   1.338   2.255
 6298WAT     H218917   3.038   1.456   2.332
 6299WAT      O18918   3.223   1.051   1.851
 6299WAT     H118919   3.212   0.956   1.864
 6299WAT     H218920   3.223   1.087   1.940
 6300WAT      O18921   3.033   0.869   2.475
 6300WAT     H118922   3.075   0.847   2.392
 6300WAT     H218923   3.106   0.895   2.532
 6301WAT      O18924   2.777   0.613   1.787
 6301WAT     H118925   2.684   0.607   1.810
 6301WAT     H218926   2.792   0.707   1.775
 6302WAT      O18927   2.776   0.240   1.486
 6302WAT     H118928   2.682   0.257   1.495
 6302WAT     H218929   2.808   0.312   1.432
 6303WAT      O18930   3.428   0.709   2.484
 6303WAT     H118931   3.345   0.716   2.437
 6303WAT     H218932   3.487   0.767   2.437
 6304WAT      O18933   3.180   0.769   1.837
 6304WAT     H118934   3.118   0.736   1.772
 6304WAT     H218935   3.178   0.705   1.908
 6305WAT      O18936   3.124   0.387   2.579
 6305WAT     H118937   3.083   0.470   2.604
 6305WAT     H218938   3.051   0.329   2.560
 6306WAT      O18939   2.338   0.666   2.065
 6306WAT     H118940   2.297   0.595   2.015
 6306WAT     H218941   2.346   0.631   2.154
 6307WAT      O18942   2.385   1.035   2.281
 6307WAT     H118943   2.355   0.974   2.213
 6307WAT     H218944   2.480   1.038   2.270
 6308WAT      O18945   2.209   0.343   2.443
 6308WAT     H118946   2.264   0.354   2.365
 6308WAT     H218947   2.260   0.381   2.514
 6309WAT      O18948   3.193   1.392   2.648
 6309WAT     H118949   3.146   1.473   2.628
 6309WAT     H218950   3.125   1.327   2.663
 6310WAT      O18951   2.294   1.008   2.946
 6310WAT     H118952   2.204   1.031   2.971
 6310WAT     H218953   2.296   1.021   2.852
 6311WAT      O18954   2.998   0.693   1.538
 6311WAT     H118955   3.042   0.610   1.523
 6311WAT     H218956   3.069   0.757   1.546
 6312WAT      O18957   2.176   0.696   2.804
 6312WAT     H118958   2.163   0.783   2.841
 6312WAT     H218959   2.088   0.661   2.789
 6313WAT      O18960   2.809   1.187   1.935
 6313WAT     H118961   2.853   1.262   1.893
 6313WAT     H218962   2.803   1.212   2.027
 6314WAT      O18963   2.356   1.290   3.025
 6314WAT     H118964   2.353   1.330   2.938
 6314WAT     H218965   2.340   1.197   3.009
 6315WAT      O18966   2.008   0.555   1.815
 6315WAT     H118967   1.996   0.628   1.754
 6315WAT     H218968   1.977   0.478   1.767
 6316WAT      O18969   3.551   1.368   3.154
 6316WAT     H118970   3.599   1.416   3.222
 6316WAT     H218971   3.613   1.361   3.082
 6317WAT      O18972   1.772   0.873   2.396
 6317WAT     H118973   1.779   0.886   2.301
 6317WAT     H218974   1.833   0.802   2.415
 6318WAT      O18975   1.896   1.043   2.037
 6318WAT     H118976   1.855   1.057   1.951
 6318WAT     H218977   1.985   1.014   2.016
 6319WAT      O18978   3.492   1.087   2.870
 6319WAT     H118979   3.504   1.063   2.779
 6319WAT     H218980   3.496   1.004   2.918
 6320WAT      O18981   2.878   1.457   2.727
 6320WAT     H118982   2.929   1.449   2.808
 6320WAT     H218983   2.794   1.492   2.757
 6321WAT      O18984   3.075   1.486   1.670
 6321WAT     H118985   3.059   1.457   1.760
 6321WAT     H218986   3.059   1.408   1.617
 6322WAT      O18987   2.323   1.464   1.848
 6322WAT     H118988   2.306   1.372   1.827
 6322WAT     H218989   2.238   1.500   1.872
 6323WAT      O18990   3.046   1.237   1.526
 6323WAT     H118991   2.976   1.237   1.460
 6323WAT     H218992   3.120   1.194   1.483
 6324WAT      O18993   3.002   1.400   1.934
 6324WAT     H118994   3.048   1.321   1.965
 6324WAT     H218995   3.036   1.471   1.988
 6325WAT      O18996   3.477   0.293   2.967
 6325WAT     H118997   3.415   0.343   2.914
 6325WAT     H218998   3.445   0.202   2.961
 6326WAT      O18999   1.777   0.977   2.650
 6326WAT     H119000   1.794   0.930   2.568
 6326WAT     H219001   1.824   0.926   2.716
 6327WAT      O19002   3.183   0.299   2.827
 6327WAT     H119003   3.098   0.269   2.859
 6327WAT     H219004   3.167   0.323   2.735
 6328WAT      O19005   2.893   0.449   3.037
 6328WAT     H119006   2.925   0.365   3.003
 6328WAT     H219007   2.971   0.501   3.051
 6329WAT      O19008   2.234   0.402   1.926
 6329WAT     H119009   2.211   0.380   2.017
 6329WAT     H219010   2.155   0.445   1.892
 6330WAT      O19011   2.957   0.403   1.786
 6330WAT     H119012   2.897   0.475   1.768
 6330WAT     H219013   3.011   0.396   1.708
 6331WAT      O19014   2.478   0.492   2.993
 6331WAT     H119015   2.468   0.398   2.978
 6331WAT     H219016   2.562   0.514   2.953
 6332WAT      O19017   2.817   0.266   1.989
 6332WAT     H119018   2.856   0.298   1.908
 6332WAT     H219019   2.853   0.178   2.000
 6333WAT      O19020   1.740   0.320   1.332
 6333WAT     H119021   1.731   0.414   1.346
 6333WAT     H219022   1.704   0.305   1.244
 6334WAT      O19023   2.876   0.525   2.399
 6334WAT     H119024   2.803   0.576   2.433
 6334WAT     H219025   2.836   0.444   2.368
 6335WAT      O19026   2.526   0.293   1.538
 6335WAT     H119027   2.538   0.289   1.633
 6335WAT     H219028   2.487   0.379   1.523
 6336WAT      O19029   2.427   0.524   1.478
 6336WAT     H119030   2.370   0.479   1.415
 6336WAT     H219031   2.498   0.560   1.425
 6337WAT      O19032   1.935   0.914   2.866
 6337WAT     H119033   1.896   0.850   2.925
 6337WAT     H219034   1.966   0.985   2.923
 6338WAT      O19035   2.550   0.599   2.414
 6338WAT     H119036   2.586   0.552   2.488
 6338WAT     H219037   2.531   0.686   2.448
 6339WAT      O19038   2.329   0.503   2.646
 6339WAT     H119039   2.298   0.591   2.668
 6339WAT     H219040   2.424   0.509   2.649
 6340WAT      O19041   2.181   0.924   1.705
 6340WAT     H119042   2.104   0.870   1.689
 6340WAT     H219043   2.254   0.872   1.671
 6341WAT      O19044   3.257   0.823   2.284
 6341WAT     H119045   3.329   0.873   2.245
 6341WAT     H219046   3.237   0.755   2.220
 6342WAT      O19047   2.795   0.830   2.873
 6342WAT     H119048   2.789   0.738   2.848
 6342WAT     H219049   2.732   0.840   2.945
 6343WAT      O19050   3.075   0.400   1.528
 6343WAT     H119051   3.164   0.431   1.511
 6343WAT     H219052   3.072   0.313   1.489
 6344WAT      O19053   2.186   0.890   2.069
 6344WAT     H119054   2.238   0.810   2.064
 6344WAT     H219055   2.141   0.884   2.153
 6345WAT      O19056   2.674   1.017   1.596
 6345WAT     H119057   2.709   1.092   1.547
 6345WAT     H219058   2.592   1.048   1.633
 6346WAT      O19059   1.934   0.587   2.760
 6346WAT     H119060   1.898   0.654   2.819
 6346WAT     H219061   1.905   0.504   2.797
 6347WAT      O19062   2.254   0.633   3.049
 6347WAT     H119063   2.224   0.647   2.959
 6347WAT     H219064   2.331   0.577   3.039
 6348WAT      O19065   2.789   1.113   2.848
 6348WAT     H119066   2.790   1.019   2.826
 6348WAT     H219067   2.718   1.121   2.912
 6349WAT      O19068   3.302   0.531   1.475
 6349WAT     H119069   3.294   0.574   1.390
 6349WAT     H219070   3.374   0.577   1.518
 6350WAT      O19071   3.410   0.777   2.783
 6350WAT     H119072   3.337   0.836   2.763
 6350WAT     H219073   3.462   0.776   2.703
 6351WAT      O19074   3.405   1.216   1.748
 6351WAT     H119075   3.341   1.151   1.775
 6351WAT     H219076   3.366   1.257   1.670
 6352WAT      O19077   2.963   0.949   2.133
 6352WAT     H119078   2.998   0.890   2.067
 6352WAT     H219079   2.874   0.917   2.150
 6353WAT      O19080   2.571   1.025   1.873
 6353WAT     H119081   2.640   1.080   1.912
 6353WAT     H219082   2.493   1.080   1.877
 6354WAT      O19083   1.785   0.587   1.423
 6354WAT     H119084   1.872   0.615   1.451
 6354WAT     H219085   1.736   0.668   1.411
 6355WAT      O19086   2.502   0.726   1.835
 6355WAT     H119087   2.547   0.807   1.857
 6355WAT     H219088   2.467   0.694   1.918
 6356WAT      O19089   2.732   1.277   2.558
 6356WAT     H119090   2.796   1.297   2.625
 6356WAT     H219091   2.768   1.201   2.512
 6357WAT      O19092   2.859   1.077   2.429
 6357WAT     H119093   2.923   1.007   2.441
 6357WAT     H219094   2.912   1.155   2.411
 6358WAT      O19095   3.244   1.106   1.402
 6358WAT     H119096   3.221   1.034   1.461
 6358WAT     H219097   3.205   1.081   1.318
 6359WAT      O19098   3.037   1.157   2.750
 6359WAT     H119099   3.070   1.216   2.818
 6359WAT     H219100   2.945   1.144   2.773
 6360WAT      O19101   1.822   1.508   1.479
 6360WAT     H119102   1.858   1.568   1.414
 6360WAT     H219103   1.808   1.563   1.557
 6361WAT      O19104   3.202   0.897   1.568
 6361WAT     H119105   3.173   0.943   1.647
 6361WAT     H219106   3.282   0.851   1.595
 6362WAT      O19107   1.820   1.335   2.927
 6362WAT     H119108   1.831   1.241   2.913
 6362WAT     H219109   1.755   1.361   2.862
 6363WAT      O19110   2.620   1.162   3.067
 6363WAT     H119111   2.588   1.090   3.121
 6363WAT     H219112   2.552   1.230   3.074
 6364WAT      O19113   2.424   1.247   1.561
 6364WAT     H119114   2.423   1.320   1.499
 6364WAT     H219115   2.332   1.222   1.570
 6365WAT      O19116   1.984   0.769   1.635
 6365WAT     H119117   1.923   0.843   1.636
 6365WAT     H219118   2.031   0.778   1.553
 6366WAT      O19119   2.722   1.253   1.427
 6366WAT     H119120   2.732   1.232   1.334
 6366WAT     H219121   2.632   1.227   1.448
 6367WAT      O19122   2.475   0.309   1.825
 6367WAT     H119123   2.404   0.356   1.870
 6367WAT     H219124   2.503   0.243   1.889
 6368WAT      O19125   2.637   0.451   2.625
 6368WAT     H119126   2.687   0.498   2.692
 6368WAT     H219127   2.651   0.358   2.646
 6369WAT      O19128   2.586   1.505   1.897
 6369WAT     H119129   2.612   1.501   1.804
 6369WAT     H219130   2.492   1.492   1.896
 6370WAT      O19131   3.187   0.597   2.054
 6370WAT     H119132   3.093   0.598   2.072
 6370WAT     H219133   3.218   0.518   2.099
 6371WAT      O19134   2.185   0.765   1.410
 6371WAT     H119135   2.261   0.754   1.467
 6371WAT     H219136   2.193   0.695   1.345
 6372WAT      O19137   2.054   0.508   1.479
 6372WAT     H119138   2.062   0.413   1.490
 6372WAT     H219139   2.143   0.541   1.489
 6373WAT      O19140   3.387   1.314   2.222
 6373WAT     H119141   3.400   1.396   2.269
 6373WAT     H219142   3.474   1.293   2.187
 6374WAT      O19143   2.134   1.523   2.189
 6374WAT     H119144   2.208   1.468   2.216
 6374WAT     H219145   2.173   1.610   2.175
 6375WAT      O19146   1.823   1.130   1.776
 6375WAT     H119147   1.730   1.154   1.775
 6375WAT     H219148   1.869   1.213   1.764
 6376WAT      O19149   2.035   1.441   3.108
 6376WAT     H119150   2.115   1.474   3.149
 6376WAT     H219151   1.984   1.405   3.180
 6377WAT      O19152   2.445   1.440   1.371
 6377WAT     H119153   2.525   1.469   1.326
 6377WAT     H219154   2.393   1.397   1.303
 6378WAT      O19155   2.919   1.052   3.103
 6378WAT     H119156   2.858   1.055   3.029
 6378WAT     H219157   2.888   0.979   3.156
 6379WAT      O19158   3.062   1.425   2.964
 6379WAT     H119159   3.157   1.417   2.959
 6379WAT     H219160   3.047   1.492   3.031
 6380WAT      O19161   3.351   1.363   1.514
 6380WAT     H119162   3.322   1.322   1.432
 6380WAT     H219163   3.331   1.456   1.502
 6381WAT      O19164   1.807   0.690   3.002
 6381WAT     H119165   1.857   0.632   3.059
 6381WAT     H219166   1.733   0.719   3.056
 6382WAT      O19167   2.497   0.962   1.358
 6382WAT     H119168   2.487   0.901   1.430
 6382WAT     H219169   2.480   0.910   1.279
 6383WAT      O19170   2.512   0.831   2.956
 6383WAT     H119171   2.436   0.888   2.947
 6383WAT     H219172   2.531   0.802   2.866
 6384WAT      O19173   2.821   0.869   1.418
 6384WAT     H119174   2.766   0.913   1.483
 6384WAT     H219175   2.883   0.818   1.470
 6385WAT      O19176   3.227   1.004   3.011
 6385WAT     H119177   3.301   1.038   2.961
 6385WAT     H219178   3.150   1.021   2.956
 6386WAT      O19179   2.010   0.505   3.092
 6386WAT     H119180   2.014   0.475   3.183
 6386WAT     H219181   2.096   0.545   3.076
 6387WAT      O19182   2.388   0.764   1.608
 6387WAT     H119183   2.430   0.748   1.692
 6387WAT     H219184   2.400   0.683   1.558
 6388WAT      O19185   2.204   0.362   2.888
 6388WAT     H119186   2.151   0.313   2.826
 6388WAT     H219187   2.271   0.405   2.835
 6389WAT      O19188   2.639   0.667   1.333
 6389WAT     H119189   2.691   0.595   1.296
 6389WAT     H219190   2.704   0.731   1.363
 6390WAT      O19191   3.094   0.809   2.865
 6390WAT     H119192   3.135   0.825   2.950
 6390WAT     H219193   3.001   0.822   2.881
 6391WAT      O19194   3.141   0.543   3.065
 6391WAT     H119195   3.199   0.468   3.056
 6391WAT     H219196   3.159   0.596   2.988
 6392WAT      O19197   2.570   0.804   2.662
 6392WAT     H119198   2.612   0.889   2.645
 6392WAT     H219199   2.478   0.818   2.639
 6393WAT      O19200   2.804   0.578   2.800
 6393WAT     H119201   2.816   0.518   2.874
 6393WAT     H219202   2.890   0.581   2.758
 6394WAT      O19203   3.038   0.633   2.658
 6394WAT     H119204   2.985   0.685   2.597
 6394WAT     H219205   3.072   0.696   2.721
 6395WAT      O19206   2.278   0.372   1.302
 6395WAT     H119207   2.257   0.285   1.338
 6395WAT     H219208   2.260   0.363   1.209
 6396WAT      O19209   2.355   1.435   2.773
 6396WAT     H119210   2.301   1.507   2.741
 6396WAT     H219211   2.381   1.387   2.694
 6397WAT      O19212   2.481   0.232   2.926
 6397WAT     H119213   2.540   0.201   2.995
 6397WAT     H219214   2.399   0.185   2.942
 6398WAT      O19215   2.641   1.558   2.799
 6398WAT     H119216   2.633   1.649   2.830
 6398WAT     H219217   2.551   1.527   2.796
 6399WAT      O19218   2.696   1.475   1.562
 6399WAT     H119219   2.785   1.509   1.564
 6399WAT     H219220   2.699   1.403   1.499
 6400WAT      O19221   2.060   1.012   1.384
 6400WAT     H119222   2.103   1.067   1.450
 6400WAT     H219223   2.108   0.930   1.385
 6401WAT      O19224   1.781   1.291   2.130
 6401WAT     H119225   1.814   1.204   2.106
 6401WAT     H219226   1.824   1.312   2.213
 6402WAT      O19227   2.241   1.124   1.896
 6402WAT     H119228   2.211   1.112   1.986
 6402WAT     H219229   2.230   1.038   1.855
 6403WAT      O19230   1.830   1.378   2.403
 6403WAT     H119231   1.786   1.396   2.487
 6403WAT     H219232   1.887   1.454   2.389
 6404WAT      O19233   3.394   1.328   2.832
 6404WAT     H119234   3.334   1.334   2.758
 6404WAT     H219235   3.407   1.234   2.845
 6405WAT      O19236   3.518   1.102   1.366
 6405WAT     H119237   3.435   1.109   1.413
 6405WAT     H219238   3.535   1.191   1.336
 6406WAT      O19239   3.463   0.777   1.616
 6406WAT     H119240   3.539   0.834   1.627
 6406WAT     H219241   3.465   0.720   1.693
 6407WAT      O19242   1.813   0.629   2.039
 6407WAT     H119243   1.748   0.602   1.975
 6407WAT     H219244   1.897   0.618   1.994
 6408WAT      O19245   3.564   0.862   2.101
 6408WAT     H119246   3.601   0.784   2.060
 6408WAT     H219247   3.628   0.931   2.083
 6409WAT      O19248   3.262   1.001   2.642
 6409WAT     H119249   3.181   1.044   2.668
 6409WAT     H219250   3.303   1.062   2.581
 6410WAT      O19251   3.468   0.806   1.332
 6410WAT     H119252   3.496   0.897   1.319
 6410WAT     H219253   3.450   0.800   1.426
 6411WAT      O19254   3.458   0.600   1.831
 6411WAT     H119255   3.421   0.523   1.788
 6411WAT     H219256   3.385   0.638   1.880
 6412WAT      O19257   1.917   0.668   2.493
 6412WAT     H119258   1.954   0.659   2.581
 6412WAT     H219259   1.860   0.591   2.483
 6413WAT      O19260   3.397   0.514   2.795
 6413WAT     H119261   3.374   0.492   2.705
 6413WAT     H219262   3.423   0.606   2.790
 6414WAT      O19263   1.872   0.359   2.884
 6414WAT     H119264   1.783   0.355   2.918
 6414WAT     H219265   1.926   0.379   2.960
 6415WAT      O19266   1.735   0.350   1.634
 6415WAT     H119267   1.644   0.376   1.616
 6415WAT     H219268   1.783   0.377   1.556
 6416WAT      O19269   3.386   0.422   2.161
 6416WAT     H119270   3.438   0.373   2.098
 6416WAT     H219271   3.444   0.436   2.236
 6417WAT      O19272   3.404   0.431   2.514
 6417WAT     H119273   3.309   0.427   2.525
 6417WAT     H219274   3.422   0.522   2.490
 6418WAT      O19275   1.989   0.256   1.424
 6418WAT     H119276   2.060   0.214   1.376
 6418WAT     H219277   1.917   0.262   1.361
 6419WAT      O19278   3.335   0.348   1.755
 6419WAT     H119279   3.384   0.325   1.834
 6419WAT     H219280   3.315   0.264   1.714
 6420WAT      O19281   3.268   1.476   1.995
 6420WAT     H119282   3.328   1.444   1.927
 6420WAT     H219283   3.294   1.428   2.074
 6421WAT      O19284   2.059   1.119   3.010
 6421WAT     H119285   2.054   1.082   3.098
 6421WAT     H219286   2.072   1.213   3.024
 6422WAT      O19287   2.429   1.274   2.570
 6422WAT     H119288   2.405   1.301   2.481
 6422WAT     H219289   2.523   1.292   2.575
 6423WAT      O19290   3.555   1.476   2.650
 6423WAT     H119291   3.505   1.516   2.578
 6423WAT     H219292   3.494   1.414   2.689
 6424WAT      O19293   2.042   1.414   2.722
 6424WAT     H119294   1.983   1.400   2.795
 6424WAT     H219295   2.042   1.330   2.675
 6425WAT      O19296   3.323   1.541   2.378
 6425WAT     H119297   3.277   1.616   2.340
 6425WAT     H219298   3.260   1.469   2.372
 6426WAT      O19299   2.006   1.150   2.617
 6426WAT     H119300   1.933   1.088   2.610
 6426WAT     H219301   2.012   1.190   2.530
 6427WAT      O19302   2.366   1.372   2.295
 6427WAT     H119303   2.418   1.310   2.243
 6427WAT     H219304   2.431   1.422   2.344
 6428WAT      O19305   2.640   1.461   2.378
 6428WAT     H119306   2.669   1.435   2.290
 6428WAT     H219307   2.691   1.405   2.437
 6429WAT      O19308   1.834   1.482   1.938
 6429WAT     H119309   1.817   1.419   2.007
 6429WAT     H219310   1.747   1.502   1.902
 6430WAT      O19311   1.995   1.351   1.682
 6430WAT     H119312   1.942   1.389   1.612
 6430WAT     H219313   1.987   1.414   1.754
 6431WAT      O19314   2.647   1.553   3.114
 6431WAT     H119315   2.739   1.529   3.119
 6431WAT     H219316   2.645   1.636   3.066
 6432WAT      O19317   3.470   1.507   1.814
 6432WAT     H119318   3.488   1.438   1.750
 6432WAT     H219319   3.400   1.560   1.775
 6433WAT      O19320   2.254   1.546   1.570
 6433WAT     H119321   2.328   1.518   1.515
 6433WAT     H219322   2.280   1.522   1.659
 6434WAT      O19323   2.171   1.158   1.570
 6434WAT     H119324   2.108   1.205   1.625
 6434WAT     H219325   2.182   1.073   1.613
 6435WAT      O19326   3.303   1.475   3.097
 6435WAT     H119327   3.383   1.426   3.076
 6435WAT     H219328   3.333   1.543   3.158
 6436WAT      O19329   2.729   0.740   0.373
 6436WAT     H119330   2.652   0.693   0.402
 6436WAT     H219331   2.794   0.673   0.356
 6437WAT      O19332   2.131   0.772   0.461
 6437WAT     H119333   2.048   0.746   0.501
 6437WAT     H219334   2.192   0.779   0.534
 6438WAT      O19335   3.131   1.181   0.251
 6438WAT     H119336   3.085   1.104   0.284
 6438WAT     H219337   3.213   1.184   0.302
 6439WAT      O19338   2.129   1.175   0.480
 6439WAT     H119339   2.159   1.086   0.463
 6439WAT     H219340   2.203   1.231   0.458
 6440WAT      O19341   1.768   0.528   0.428
 6440WAT     H119342   1.825   0.451   0.428
 6440WAT     H219343   1.768   0.558   0.337
 6441WAT      O19344   2.673   1.008   0.374
 6441WAT     H119345   2.666   0.914   0.358
 6441WAT     H219346   2.750   1.017   0.431
 6442WAT      O19347   2.776   0.289   0.397
 6442WAT     H119348   2.814   0.201   0.385
 6442WAT     H219349   2.767   0.322   0.307
 6443WAT      O19350   1.954   0.318   0.467
 6443WAT     H119351   2.022   0.345   0.529
 6443WAT     H219352   1.923   0.234   0.501
 6444WAT      O19353   2.374   0.423   0.376
 6444WAT     H119354   2.424   0.473   0.440
 6444WAT     H219355   2.427   0.345   0.358
 6445WAT      O19356   3.584   0.240   0.746
 6445WAT     H119357   3.513   0.279   0.694
 6445WAT     H219358   3.610   0.309   0.806
 6446WAT      O19359   2.327   0.851   0.620
 6446WAT     H119360   2.294   0.914   0.685
 6446WAT     H219361   2.345   0.903   0.542
 6447WAT      O19362   3.178   0.232   0.367
 6447WAT     H119363   3.108   0.261   0.425
 6447WAT     H219364   3.214   0.313   0.331
 6448WAT      O19365   2.248   1.048   0.802
 6448WAT     H119366   2.310   1.115   0.774
 6448WAT     H219367   2.162   1.089   0.793
 6449WAT      O19368   3.340   1.194   0.593
 6449WAT     H119369   3.272   1.261   0.593
 6449WAT     H219370   3.394   1.214   0.517
 6450WAT      O19371   3.485   0.177   0.406
 6450WAT     H119372   3.390   0.180   0.419
 6450WAT     H219373   3.518   0.258   0.445
 6451WAT      O19374   3.093   1.378   0.465
 6451WAT     H119375   3.095   1.338   0.378
 6451WAT     H219376   3.038   1.456   0.454
 6452WAT      O19377   3.033   0.869   0.598
 6452WAT     H119378   3.075   0.847   0.514
 6452WAT     H219379   3.106   0.895   0.655
 6453WAT      O19380   3.428   0.709   0.607
 6453WAT     H119381   3.345   0.716   0.559
 6453WAT     H219382   3.487   0.767   0.560
 6454WAT      O19383   3.124   0.387   0.701
 6454WAT     H119384   3.083   0.470   0.727
 6454WAT     H219385   3.051   0.329   0.682
 6455WAT      O19386   2.385   1.035   0.404
 6455WAT     H119387   2.355   0.974   0.336
 6455WAT     H219388   2.480   1.038   0.393
 6456WAT      O19389   2.209   0.343   0.566
 6456WAT     H119390   2.264   0.354   0.488
 6456WAT     H219391   2.260   0.381   0.637
 6457WAT      O19392   3.193   1.392   0.770
 6457WAT     H119393   3.146   1.473   0.751
 6457WAT     H219394   3.125   1.327   0.785
 6458WAT      O19395   2.294   1.008   1.069
 6458WAT     H119396   2.204   1.031   1.094
 6458WAT     H219397   2.296   1.021   0.974
 6459WAT      O19398   2.176   0.696   0.927
 6459WAT     H119399   2.163   0.783   0.963
 6459WAT     H219400   2.088   0.661   0.912
 6460WAT      O19401   2.356   1.290   1.147
 6460WAT     H119402   2.353   1.330   1.061
 6460WAT     H219403   2.340   1.197   1.131
 6461WAT      O19404   3.551   1.368   1.277
 6461WAT     H119405   3.599   1.416   1.345
 6461WAT     H219406   3.613   1.361   1.205
 6462WAT      O19407   1.772   0.873   0.518
 6462WAT     H119408   1.779   0.886   0.424
 6462WAT     H219409   1.833   0.802   0.538
 6463WAT      O19410   3.492   1.087   0.993
 6463WAT     H119411   3.504   1.063   0.901
 6463WAT     H219412   3.496   1.004   1.040
 6464WAT      O19413   2.878   1.457   0.850
 6464WAT     H119414   2.929   1.449   0.930
 6464WAT     H219415   2.794   1.492   0.879
 6465WAT      O19416   3.477   0.293   1.090
 6465WAT     H119417   3.415   0.343   1.037
 6465WAT     H219418   3.445   0.202   1.084
 6466WAT      O19419   1.777   0.977   0.772
 6466WAT     H119420   1.794   0.930   0.690
 6466WAT     H219421   1.824   0.926   0.839
 6467WAT      O19422   3.183   0.299   0.949
 6467WAT     H119423   3.098   0.269   0.981
 6467WAT     H219424   3.167   0.323   0.858
 6468WAT      O19425   2.893   0.449   1.159
 6468WAT     H119426   2.925   0.365   1.125
 6468WAT     H219427   2.971   0.501   1.174
 6469WAT      O19428   2.478   0.492   1.115
 6469WAT     H119429   2.468   0.398   1.100
 6469WAT     H219430   2.562   0.514   1.076
 6470WAT      O19431   2.876   0.525   0.521
 6470WAT     H119432   2.803   0.576   0.556
 6470WAT     H219433   2.836   0.444   0.491
 6471WAT      O19434   1.935   0.914   0.988
 6471WAT     H119435   1.896   0.850   1.048
 6471WAT     H219436   1.966   0.985   1.045
 6472WAT      O19437   2.550   0.599   0.536
 6472WAT     H119438   2.586   0.552   0.611
 6472WAT     H219439   2.531   0.686   0.570
 6473WAT      O19440   2.329   0.503   0.768
 6473WAT     H119441   2.298   0.591   0.791
 6473WAT     H219442   2.424   0.509   0.772
 6474WAT      O19443   3.257   0.823   0.407
 6474WAT     H119444   3.329   0.873   0.368
 6474WAT     H219445   3.237   0.755   0.343
 6475WAT      O19446   2.795   0.830   0.996
 6475WAT     H119447   2.789   0.738   0.970
 6475WAT     H219448   2.732   0.840   1.067
 6476WAT      O19449   2.186   0.890   0.192
 6476WAT     H119450   2.238   0.810   0.186
 6476WAT     H219451   2.141   0.884   0.276
 6477WAT      O19452   1.934   0.587   0.883
 6477WAT     H119453   1.898   0.654   0.942
 6477WAT     H219454   1.905   0.504   0.920
 6478WAT      O19455   2.254   0.633   1.171
 6478WAT     H119456   2.224   0.647   1.081
 6478WAT     H219457   2.331   0.577   1.162
 6479WAT      O19458   2.789   1.113   0.971
 6479WAT     H119459   2.790   1.019   0.949
 6479WAT     H219460   2.718   1.121   1.035
 6480WAT      O19461   3.410   0.777   0.905
 6480WAT     H119462   3.337   0.836   0.886
 6480WAT     H219463   3.462   0.776   0.826
 6481WAT      O19464   2.963   0.949   0.255
 6481WAT     H119465   2.998   0.890   0.189
 6481WAT     H219466   2.874   0.917   0.272
 6482WAT      O19467   2.732   1.277   0.680
 6482WAT     H119468   2.796   1.297   0.748
 6482WAT     H219469   2.768   1.201   0.635
 6483WAT      O19470   2.859   1.077   0.552
 6483WAT     H119471   2.923   1.007   0.563
 6483WAT     H219472   2.912   1.155   0.534
 6484WAT      O19473   3.037   1.157   0.872
 6484WAT     H119474   3.070   1.216   0.940
 6484WAT     H219475   2.945   1.144   0.895
 6485WAT      O19476   1.820   1.335   1.049
 6485WAT     H119477   1.831   1.241   1.035
 6485WAT     H219478   1.755   1.361   0.984
 6486WAT      O19479   2.620   1.162   1.189
 6486WAT     H119480   2.588   1.090   1.244
 6486WAT     H219481   2.552   1.230   1.197
 6487WAT      O19482   2.637   0.451   0.748
 6487WAT     H119483   2.687   0.498   0.814
 6487WAT     H219484   2.651   0.358   0.769
 6488WAT      O19485   3.187   0.597   0.177
 6488WAT     H119486   3.093   0.598   0.194
 6488WAT     H219487   3.218   0.518   0.221
 6489WAT      O19488   3.387   1.314   0.344
 6489WAT     H119489   3.400   1.396   0.392
 6489WAT     H219490   3.474   1.293   0.310
 6490WAT      O19491   2.134   1.523   0.312
 6490WAT     H119492   2.208   1.468   0.339
 6490WAT     H219493   2.173   1.610   0.298
 6491WAT      O19494   2.035   1.441   1.230
 6491WAT     H119495   2.115   1.474   1.272
 6491WAT     H219496   1.984   1.405   1.303
 6492WAT      O19497   2.919   1.052   1.225
 6492WAT     H119498   2.858   1.055   1.151
 6492WAT     H219499   2.888   0.979   1.279
 6493WAT      O19500   3.062   1.425   1.086
 6493WAT     H119501   3.157   1.417   1.081
 6493WAT     H219502   3.047   1.492   1.154
 6494WAT      O19503   1.807   0.690   1.125
 6494WAT     H119504   1.857   0.632   1.182
 6494WAT     H219505   1.733   0.719   1.179
 6495WAT      O19506   2.512   0.831   1.078
 6495WAT     H119507   2.436   0.888   1.070
 6495WAT     H219508   2.531   0.802   0.989
 6496WAT      O19509   3.227   1.004   1.134
 6496WAT     H119510   3.301   1.038   1.084
 6496WAT     H219511   3.150   1.021   1.079
 6497WAT      O19512   2.010   0.505   1.214
 6497WAT     H119513   2.014   0.475   1.305
 6497WAT     H219514   2.096   0.545   1.198
 6498WAT      O19515   2.204   0.362   1.011
 6498WAT     H119516   2.151   0.313   0.948
 6498WAT     H219517   2.271   0.405   0.958
 6499WAT      O19518   3.094   0.809   0.987
 6499WAT     H119519   3.135   0.825   1.072
 6499WAT     H219520   3.001   0.822   1.004
 6500WAT      O19521   3.141   0.543   1.188
 6500WAT     H119522   3.199   0.468   1.179
 6500WAT     H219523   3.159   0.596   1.110
 6501WAT      O19524   2.570   0.804   0.784
 6501WAT     H119525   2.612   0.889   0.767
 6501WAT     H219526   2.478   0.818   0.761
 6502WAT      O19527   2.804   0.578   0.923
 6502WAT     H119528   2.816   0.518   0.997
 6502WAT     H219529   2.890   0.581   0.881
 6503WAT      O19530   3.038   0.633   0.780
 6503WAT     H119531   2.985   0.685   0.720
 6503WAT     H219532   3.072   0.696   0.843
 6504WAT      O19533   2.355   1.435   0.896
 6504WAT     H119534   2.301   1.507   0.864
 6504WAT     H219535   2.381   1.387   0.817
 6505WAT      O19536   2.481   0.232   1.049
 6505WAT     H119537   2.540   0.201   1.117
 6505WAT     H219538   2.399   0.185   1.064
 6506WAT      O19539   2.641   1.558   0.922
 6506WAT     H119540   2.633   1.649   0.953
 6506WAT     H219541   2.551   1.527   0.919
 6507WAT      O19542   1.781   1.291   0.252
 6507WAT     H119543   1.814   1.204   0.229
 6507WAT     H219544   1.824   1.312   0.335
 6508WAT      O19545   1.830   1.378   0.526
 6508WAT     H119546   1.786   1.396   0.609
 6508WAT     H219547   1.887   1.454   0.512
 6509WAT      O19548   3.394   1.328   0.955
 6509WAT     H119549   3.334   1.334   0.880
 6509WAT     H219550   3.407   1.234   0.968
 6510WAT      O19551   3.564   0.862   0.223
 6510WAT     H119552   3.601   0.784   0.183
 6510WAT     H219553   3.628   0.931   0.205
 6511WAT      O19554   3.262   1.001   0.765
 6511WAT     H119555   3.181   1.044   0.791
 6511WAT     H219556   3.303   1.062   0.703
 6512WAT      O19557   1.917   0.668   0.616
 6512WAT     H119558   1.954   0.659   0.704
 6512WAT     H219559   1.860   0.591   0.606
 6513WAT      O19560   3.397   0.514   0.917
 6513WAT     H119561   3.374   0.492   0.827
 6513WAT     H219562   3.423   0.606   0.913
 6514WAT      O19563   1.872   0.359   1.006
 6514WAT     H119564   1.783   0.355   1.040
 6514WAT     H219565   1.926   0.379   1.083
 6515WAT      O19566   3.386   0.422   0.284
 6515WAT     H119567   3.438   0.373   0.221
 6515WAT     H219568   3.444   0.436   0.358
 6516WAT      O19569   3.404   0.431   0.636
 6516WAT     H119570   3.309   0.427   0.648
 6516WAT     H219571   3.422   0.522   0.613
 6517WAT      O19572   2.059   1.119   1.132
 6517WAT     H119573   2.054   1.082   1.220
 6517WAT     H219574   2.072   1.213   1.146
 6518WAT      O19575   2.429   1.274   0.692
 6518WAT     H119576   2.405   1.301   0.603
 6518WAT     H219577   2.523   1.292   0.698
 6519WAT      O19578   3.555   1.476   0.772
 6519WAT     H119579   3.505   1.516   0.701
 6519WAT     H219580   3.494   1.414   0.812
 6520WAT      O19581   2.042   1.414   0.844
 6520WAT     H119582   1.983   1.400   0.918
 6520WAT     H219583   2.042   1.330   0.797
 6521WAT      O19584   3.323   1.541   0.500
 6521WAT     H119585   3.277   1.616   0.463
 6521WAT     H219586   3.260   1.469   0.494
 6522WAT      O19587   2.006   1.150   0.739
 6522WAT     H119588   1.933   1.088   0.732
 6522WAT     H219589   2.012   1.190   0.652
 6523WAT      O19590   2.366   1.372   0.418
 6523WAT     H119591   2.418   1.310   0.365
 6523WAT     H219592   2.431   1.422   0.467
 6524WAT      O19593   2.640   1.461   0.500
 6524WAT     H119594   2.669   1.435   0.413
 6524WAT     H219595   2.691   1.405   0.559
 6525WAT      O19596   2.647   1.553   1.237
 6525WAT     H119597   2.739   1.529   1.241
 6525WAT     H219598   2.645   1.636   1.189
 6526WAT      O19599   3.303   1.475   1.219
 6526WAT     H119600   3.383   1.426   1.199
 6526WAT     H219601   3.333   1.543   1.280
 6527WAT      O19602   1.039   6.195   5.817
 6527WAT     H119603   1.031   6.104   5.790
 6527WAT     H219604   0.997   6.245   5.747
 6528WAT      O19605   0.852   6.373   6.005
 6528WAT     H119606   0.774   6.325   6.034
 6528WAT     H219607   0.917   6.305   5.988
 6529WAT      O19608   0.796   6.640   6.006
 6529WAT     H119609   0.789   6.546   5.990
 6529WAT     H219610   0.872   6.649   6.063
 6530WAT      O19611   0.899   5.921   6.029
 6530WAT     H119612   0.937   5.834   6.018
 6530WAT     H219613   0.889   5.955   5.940
 6531WAT      O19614   0.312   5.758   5.575
 6531WAT     H119615   0.323   5.848   5.606
 6531WAT     H219616   0.221   5.754   5.546
 6532WAT      O19617   1.277   5.671   5.722
 6532WAT     H119618   1.359   5.622   5.726
 6532WAT     H219619   1.281   5.730   5.797
 6533WAT      O19620   0.496   6.055   6.008
 6533WAT     H119621   0.547   6.105   6.072
 6533WAT     H219622   0.549   5.978   5.991
 6534WAT      O19623   0.963   6.530   5.585
 6534WAT     H119624   0.901   6.577   5.528
 6534WAT     H219625   1.014   6.600   5.626
 6535WAT      O19626   1.301   5.865   5.999
 6535WAT     H119627   1.230   5.893   6.057
 6535WAT     H219628   1.337   5.946   5.963
 6536WAT      O19629   1.608   5.809   6.038
 6536WAT     H119630   1.513   5.813   6.052
 6536WAT     H219631   1.640   5.891   6.077
 6537WAT      O19632   0.661   5.439   5.868
 6537WAT     H119633   0.692   5.384   5.796
 6537WAT     H219634   0.568   5.453   5.850
 6538WAT      O19635   1.346   6.683   5.606
 6538WAT     H119636   1.334   6.589   5.618
 6538WAT     H219637   1.345   6.719   5.695
 6539WAT      O19638   0.900   6.246   5.542
 6539WAT     H119639   0.807   6.239   5.565
 6539WAT     H219640   0.915   6.339   5.530
 6540WAT      O19641   0.898   5.873   5.241
 6540WAT     H119642   0.804   5.889   5.250
 6540WAT     H219643   0.930   5.945   5.187
 6541WAT      O19644   1.303   6.402   5.592
 6541WAT     H119645   1.241   6.368   5.527
 6541WAT     H219646   1.301   6.337   5.663
 6542WAT      O19647   0.460   6.298   5.820
 6542WAT     H119648   0.420   6.227   5.770
 6542WAT     H219649   0.469   6.264   5.909
 6543WAT      O19650   0.507   6.667   6.036
 6543WAT     H119651   0.477   6.606   5.968
 6543WAT     H219652   0.602   6.671   6.025
 6544WAT      O19653   1.120   6.326   5.293
 6544WAT     H119654   1.164   6.242   5.278
 6544WAT     H219655   1.192   6.389   5.301
 6545WAT      O19656   1.479   5.451   5.124
 6545WAT     H119657   1.447   5.460   5.214
 6545WAT     H219658   1.555   5.509   5.119
 6546WAT      O19659   0.377   5.522   5.908
 6546WAT     H119660   0.333   5.600   5.875
 6546WAT     H219661   0.433   5.554   5.979
 6547WAT      O19662   0.689   5.484   5.396
 6547WAT     H119663   0.626   5.484   5.469
 6547WAT     H219664   0.680   5.397   5.357
 6548WAT      O19665   0.581   5.577   6.094
 6548WAT     H119666   0.610   5.667   6.086
 6548WAT     H219667   0.636   5.528   6.033
 6549WAT      O19668   0.356   6.034   5.681
 6549WAT     H119669   0.334   6.013   5.771
 6549WAT     H219670   0.278   6.078   5.646
 6550WAT      O19671   1.079   6.035   5.541
 6550WAT     H119672   1.019   6.107   5.522
 6550WAT     H219673   1.134   6.029   5.463
 6551WAT      O19674   0.940   5.899   5.744
 6551WAT     H119675   0.979   5.930   5.663
 6551WAT     H219676   0.976   5.811   5.755
 6552WAT      O19677   0.642   5.825   5.994
 6552WAT     H119678   0.642   5.781   5.909
 6552WAT     H219679   0.732   5.857   6.005
 6553WAT      O19680   0.648   5.925   5.293
 6553WAT     H119681   0.660   5.921   5.388
 6553WAT     H219682   0.610   6.012   5.277
 6554WAT      O19683   0.549   6.156   5.233
 6554WAT     H119684   0.493   6.112   5.170
 6554WAT     H219685   0.620   6.192   5.179
 6555WAT      O19686   0.304   6.556   5.460
 6555WAT     H119687   0.227   6.502   5.444
 6555WAT     H219688   0.377   6.504   5.426
 6556WAT      O19689   1.380   6.456   6.039
 6556WAT     H119690   1.452   6.505   6.000
 6556WAT     H219691   1.360   6.388   5.975
 6557WAT      O19692   0.926   5.595   5.454
 6557WAT     H119693   0.845   5.545   5.446
 6557WAT     H219694   0.907   5.679   5.412
 6558WAT      O19695   1.197   6.032   5.283
 6558WAT     H119696   1.286   6.063   5.266
 6558WAT     H219697   1.194   5.945   5.244
 6559WAT      O19698   0.308   6.523   5.824
 6559WAT     H119699   0.360   6.442   5.818
 6559WAT     H219700   0.263   6.517   5.908
 6560WAT      O19701   0.797   6.649   5.351
 6560WAT     H119702   0.831   6.724   5.302
 6560WAT     H219703   0.714   6.681   5.387
 6561WAT      O19704   1.425   6.163   5.230
 6561WAT     H119705   1.416   6.206   5.145
 6561WAT     H219706   1.496   6.209   5.273
 6562WAT      O19707   1.085   6.582   5.888
 6562WAT     H119708   1.121   6.522   5.822
 6562WAT     H219709   0.997   6.549   5.905
 6563WAT      O19710   0.694   6.658   5.628
 6563WAT     H119711   0.763   6.712   5.666
 6563WAT     H219712   0.615   6.712   5.632
 6564WAT      O19713   0.624   6.358   5.590
 6564WAT     H119714   0.670   6.439   5.612
 6564WAT     H219715   0.589   6.326   5.673
 6565WAT      O19716   1.366   6.738   5.157
 6565WAT     H119717   1.344   6.666   5.216
 6565WAT     H219718   1.327   6.713   5.073
 6566WAT      O19719   1.325   6.530   5.323
 6566WAT     H119720   1.296   6.576   5.402
 6566WAT     H219721   1.404   6.484   5.350
 6567WAT      O19722   1.400   5.713   5.439
 6567WAT     H119723   1.337   5.724   5.367
 6567WAT     H219724   1.351   5.735   5.518
 6568WAT      O19725   0.597   5.941   5.580
 6568WAT     H119726   0.526   5.988   5.624
 6568WAT     H219727   0.626   5.875   5.644
 6569WAT      O19728   1.000   5.613   5.724
 6569WAT     H119729   0.988   5.615   5.629
 6569WAT     H219730   1.095   5.618   5.736
 6570WAT      O19731   0.417   5.772   5.318
 6570WAT     H119732   0.502   5.816   5.311
 6570WAT     H219733   0.381   5.803   5.401
 6571WAT      O19734   1.310   6.229   5.809
 6571WAT     H119735   1.215   6.230   5.827
 6571WAT     H219736   1.341   6.150   5.854
 6572WAT      O19737   0.307   6.397   5.165
 6572WAT     H119738   0.384   6.386   5.221
 6572WAT     H219739   0.315   6.328   5.100
 6573WAT      O19740   0.177   6.140   5.234
 6573WAT     H119741   0.185   6.046   5.245
 6573WAT     H219742   0.266   6.173   5.244
 6574WAT      O19743   0.620   6.595   5.113
 6574WAT     H119744   0.609   6.533   5.185
 6574WAT     H219745   0.603   6.542   5.034
 6575WAT      O19746   0.944   6.501   5.173
 6575WAT     H119747   0.889   6.546   5.237
 6575WAT     H219748   1.006   6.450   5.225
 6576WAT      O19749   0.511   6.397   5.363
 6576WAT     H119750   0.553   6.380   5.447
 6576WAT     H219751   0.523   6.316   5.313
 6577WAT      O19752   0.762   6.299   5.087
 6577WAT     H119753   0.814   6.228   5.051
 6577WAT     H219754   0.827   6.363   5.117
 6578WAT      O19755   0.400   6.004   5.057
 6578WAT     H119756   0.380   5.918   5.093
 6578WAT     H219757   0.383   5.995   4.963
 6579WAT      O19758   1.148   5.485   5.310
 6579WAT     H119759   1.176   5.401   5.346
 6579WAT     H219760   1.071   5.508   5.361
 6580WAT      O19761   0.280   5.714   5.056
 6580WAT     H119762   0.310   5.715   4.965
 6580WAT     H219763   0.354   5.679   5.106
 6581WAT      O19764   0.602   5.608   5.155
 6581WAT     H119765   0.567   5.541   5.097
 6581WAT     H219766   0.622   5.562   5.236
 6582WAT      O19767   0.182   6.645   5.139
 6582WAT     H119768   0.226   6.699   5.205
 6582WAT     H219769   0.231   6.562   5.140
 6583WAT      O19770   1.586   6.409   5.371
 6583WAT     H119771   1.662   6.466   5.382
 6583WAT     H219772   1.587   6.352   5.448
 6584WAT      O19773   1.686   6.494   5.856
 6584WAT     H119774   1.724   6.416   5.815
 6584WAT     H219775   1.750   6.563   5.838
 6585WAT      O19776   1.591   6.438   5.087
 6585WAT     H119777   1.619   6.529   5.074
 6585WAT     H219778   1.572   6.432   5.180
 6586WAT      O19779   1.231   5.741   5.216
 6586WAT     H119780   1.273   5.722   5.132
 6586WAT     H219781   1.200   5.656   5.247
 6587WAT      O19782   1.581   6.232   5.586
 6587WAT     H119783   1.543   6.155   5.543
 6587WAT     H219784   1.508   6.270   5.635
 6588WAT      O19785   1.508   6.055   5.916
 6588WAT     H119786   1.561   6.005   5.853
 6588WAT     H219787   1.567   6.068   5.991
 6589WAT      O19788   1.457   5.980   5.510
 6589WAT     H119789   1.507   5.957   5.589
 6589WAT     H219790   1.437   5.896   5.468
 6590WAT      O19791   1.600   5.844   5.763
 6590WAT     H119792   1.589   5.828   5.857
 6590WAT     H219793   1.676   5.791   5.739
 6591WAT      O19794   1.689   5.627   5.088
 6591WAT     H119795   1.781   5.614   5.067
 6591WAT     H219796   1.687   5.635   5.183
 6592WAT      O19797   1.696   5.704   5.350
 6592WAT     H119798   1.617   5.698   5.403
 6592WAT     H219799   1.717   5.798   5.349
 6593WAT      O19800   1.340   5.537   5.995
 6593WAT     H119801   1.384   5.532   5.910
 6593WAT     H219802   1.313   5.629   6.002
 6594WAT      O19803   1.526   5.500   5.796
 6594WAT     H119804   1.520   5.406   5.781
 6594WAT     H219805   1.604   5.511   5.851
 6595WAT      O19806   0.673   5.709   5.742
 6595WAT     H119807   0.592   5.671   5.708
 6595WAT     H219808   0.723   5.633   5.772
 6596WAT      O19809   1.123   5.375   5.866
 6596WAT     H119810   1.183   5.432   5.913
 6596WAT     H219811   1.049   5.432   5.843
 6597WAT      O19812   1.437   5.415   5.393
 6597WAT     H119813   1.457   5.505   5.420
 6597WAT     H219814   1.359   5.392   5.442
 6598WAT      O19815   0.256   5.550   5.297
 6598WAT     H119816   0.309   5.471   5.284
 6598WAT     H219817   0.319   5.618   5.320
 6599WAT      O19818   0.475   5.524   5.602
 6599WAT     H119819   0.412   5.454   5.619
 6599WAT     H219820   0.421   5.600   5.581
 6600WAT      O19821   1.039   6.195   3.940
 6600WAT     H119822   1.031   6.104   3.913
 6600WAT     H219823   0.997   6.245   3.869
 6601WAT      O19824   0.852   6.373   4.128
 6601WAT     H119825   0.774   6.325   4.157
 6601WAT     H219826   0.917   6.305   4.111
 6602WAT      O19827   0.796   6.640   4.129
 6602WAT     H119828   0.789   6.546   4.113
 6602WAT     H219829   0.872   6.649   4.186
 6603WAT      O19830   0.899   5.921   4.151
 6603WAT     H119831   0.937   5.834   4.140
 6603WAT     H219832   0.889   5.955   4.062
 6604WAT      O19833   0.312   5.758   3.698
 6604WAT     H119834   0.323   5.848   3.728
 6604WAT     H219835   0.221   5.754   3.669
 6605WAT      O19836   1.277   5.671   3.845
 6605WAT     H119837   1.359   5.622   3.849
 6605WAT     H219838   1.281   5.730   3.920
 6606WAT      O19839   0.496   6.055   4.131
 6606WAT     H119840   0.547   6.105   4.195
 6606WAT     H219841   0.549   5.978   4.113
 6607WAT      O19842   1.706   5.872   4.501
 6607WAT     H119843   1.636   5.911   4.449
 6607WAT     H219844   1.733   5.942   4.561
 6608WAT      O19845   0.324   5.519   4.557
 6608WAT     H119846   0.325   5.571   4.477
 6608WAT     H219847   0.242   5.471   4.555
 6609WAT      O19848   0.963   6.530   3.707
 6609WAT     H119849   0.901   6.577   3.651
 6609WAT     H219850   1.014   6.600   3.749
 6610WAT      O19851   0.449   6.483   4.375
 6610WAT     H119852   0.416   6.546   4.439
 6610WAT     H219853   0.467   6.536   4.297
 6611WAT      O19854   1.301   5.865   4.122
 6611WAT     H119855   1.230   5.893   4.180
 6611WAT     H219856   1.337   5.946   4.086
 6612WAT      O19857   0.293   5.690   4.358
 6612WAT     H119858   0.327   5.775   4.329
 6612WAT     H219859   0.199   5.705   4.370
 6613WAT      O19860   1.608   5.809   4.161
 6613WAT     H119861   1.513   5.813   4.174
 6613WAT     H219862   1.640   5.891   4.200
 6614WAT      O19863   0.661   5.439   3.991
 6614WAT     H119864   0.692   5.384   3.919
 6614WAT     H219865   0.568   5.453   3.972
 6615WAT      O19866   1.346   6.683   3.729
 6615WAT     H119867   1.334   6.589   3.741
 6615WAT     H219868   1.345   6.719   3.817
 6616WAT      O19869   1.156   6.501   4.352
 6616WAT     H119870   1.198   6.480   4.269
 6616WAT     H219871   1.228   6.527   4.410
 6617WAT      O19872   0.900   6.246   3.664
 6617WAT     H119873   0.807   6.239   3.687
 6617WAT     H219874   0.915   6.339   3.653
 6618WAT      O19875   0.898   5.873   3.364
 6618WAT     H119876   0.804   5.889   3.372
 6618WAT     H219877   0.930   5.945   3.309
 6619WAT      O19878   1.551   6.341   4.362
 6619WAT     H119879   1.468   6.348   4.314
 6619WAT     H219880   1.610   6.399   4.315
 6620WAT      O19881   1.303   6.402   3.715
 6620WAT     H119882   1.241   6.368   3.650
 6620WAT     H219883   1.301   6.337   3.785
 6621WAT      O19884   1.247   6.020   4.456
 6621WAT     H119885   1.206   6.102   4.482
 6621WAT     H219886   1.174   5.961   4.437
 6622WAT      O19887   0.460   6.298   3.942
 6622WAT     H119888   0.420   6.227   3.893
 6622WAT     H219889   0.469   6.264   4.031
 6623WAT      O19890   0.507   6.667   4.159
 6623WAT     H119891   0.477   6.606   4.091
 6623WAT     H219892   0.602   6.671   4.148
 6624WAT      O19893   0.332   5.976   4.320
 6624WAT     H119894   0.387   5.987   4.243
 6624WAT     H219895   0.383   6.013   4.392
 6625WAT      O19896   0.416   6.641   4.824
 6625WAT     H119897   0.327   6.663   4.849
 6625WAT     H219898   0.419   6.653   4.729
 6626WAT      O19899   1.120   6.326   3.415
 6626WAT     H119900   1.164   6.242   3.401
 6626WAT     H219901   1.192   6.389   3.424
 6627WAT      O19902   0.299   6.328   4.681
 6627WAT     H119903   0.285   6.415   4.718
 6627WAT     H219904   0.211   6.294   4.667
 6628WAT      O19905   1.479   5.451   3.247
 6628WAT     H119906   1.447   5.460   3.337
 6628WAT     H219907   1.555   5.509   3.242
 6629WAT      O19908   1.614   6.719   4.748
 6629WAT     H119909   1.627   6.696   4.656
 6629WAT     H219910   1.618   6.636   4.795
 6630WAT      O19911   1.600   5.925   4.844
 6630WAT     H119912   1.538   5.976   4.792
 6630WAT     H219913   1.567   5.835   4.839
 6631WAT      O19914   0.377   5.522   4.031
 6631WAT     H119915   0.333   5.600   3.998
 6631WAT     H219916   0.433   5.554   4.101
 6632WAT      O19917   0.806   5.809   4.591
 6632WAT     H119918   0.759   5.830   4.672
 6632WAT     H219919   0.765   5.727   4.561
 6633WAT      O19920   1.306   5.931   4.704
 6633WAT     H119921   1.221   5.901   4.736
 6633WAT     H219922   1.290   5.955   4.613
 6634WAT      O19923   1.015   6.081   4.914
 6634WAT     H119924   1.048   5.997   4.880
 6634WAT     H219925   1.094   6.133   4.929
 6635WAT      O19926   0.689   5.484   3.519
 6635WAT     H119927   0.626   5.484   3.591
 6635WAT     H219928   0.680   5.397   3.479
 6636WAT      O19929   0.581   5.577   4.217
 6636WAT     H119930   0.610   5.667   4.209
 6636WAT     H219931   0.636   5.528   4.155
 6637WAT      O19932   0.356   6.034   3.804
 6637WAT     H119933   0.334   6.013   3.894
 6637WAT     H219934   0.278   6.078   3.769
 6638WAT      O19935   1.079   6.035   3.663
 6638WAT     H119936   1.019   6.107   3.645
 6638WAT     H219937   1.134   6.029   3.585
 6639WAT      O19938   0.600   6.124   4.870
 6639WAT     H119939   0.591   6.030   4.855
 6639WAT     H219940   0.684   6.146   4.831
 6640WAT      O19941   0.940   5.899   3.866
 6640WAT     H119942   0.979   5.930   3.785
 6640WAT     H219943   0.976   5.811   3.878
 6641WAT      O19944   0.771   5.774   4.992
 6641WAT     H119945   0.702   5.754   5.056
 6641WAT     H219946   0.845   5.802   5.046
 6642WAT      O19947   0.998   6.158   4.276
 6642WAT     H119948   0.925   6.209   4.311
 6642WAT     H219949   0.959   6.076   4.246
 6643WAT      O19950   0.642   5.825   4.116
 6643WAT     H119951   0.642   5.781   4.032
 6643WAT     H219952   0.732   5.857   4.127
 6644WAT      O19953   0.648   5.925   3.416
 6644WAT     H119954   0.660   5.921   3.510
 6644WAT     H219955   0.610   6.012   3.400
 6645WAT      O19956   1.045   5.703   4.217
 6645WAT     H119957   1.046   5.748   4.302
 6645WAT     H219958   1.020   5.613   4.239
 6646WAT      O19959   0.549   6.156   3.355
 6646WAT     H119960   0.493   6.112   3.293
 6646WAT     H219961   0.620   6.192   3.302
 6647WAT      O19962   1.387   5.444   4.801
 6647WAT     H119963   1.420   5.371   4.854
 6647WAT     H219964   1.391   5.412   4.711
 6648WAT      O19965   0.672   6.231   4.291
 6648WAT     H119966   0.709   6.184   4.366
 6648WAT     H219967   0.653   6.319   4.325
 6649WAT      O19968   0.451   6.135   4.523
 6649WAT     H119969   0.421   6.223   4.545
 6649WAT     H219970   0.547   6.141   4.527
 6650WAT      O19971   0.304   6.556   3.583
 6650WAT     H119972   0.227   6.502   3.567
 6650WAT     H219973   0.377   6.504   3.549
 6651WAT      O19974   1.380   6.456   4.162
 6651WAT     H119975   1.452   6.505   4.123
 6651WAT     H219976   1.360   6.388   4.097
 6652WAT      O19977   0.926   5.595   3.576
 6652WAT     H119978   0.845   5.545   3.569
 6652WAT     H219979   0.907   5.679   3.535
 6653WAT      O19980   0.918   6.463   4.751
 6653WAT     H119981   0.911   6.371   4.725
 6653WAT     H219982   0.855   6.472   4.822
 6654WAT      O19983   1.197   6.032   3.406
 6654WAT     H119984   1.286   6.063   3.388
 6654WAT     H219985   1.194   5.945   3.367
 6655WAT      O19986   0.308   6.523   3.946
 6655WAT     H119987   0.360   6.442   3.941
 6655WAT     H219988   0.263   6.517   4.031
 6656WAT      O19989   0.797   6.649   3.474
 6656WAT     H119990   0.831   6.724   3.424
 6656WAT     H219991   0.714   6.681   3.510
 6657WAT      O19992   0.377   6.265   4.926
 6657WAT     H119993   0.347   6.280   4.836
 6657WAT     H219994   0.454   6.209   4.917
 6658WAT      O19995   1.425   6.163   3.353
 6658WAT     H119996   1.416   6.206   3.268
 6658WAT     H219997   1.496   6.209   3.396
 6659WAT      O19998   1.532   6.409   4.660
 6659WAT     H119999   1.460   6.468   4.641
 6659WAT     H220000   1.585   6.408   4.580
 6660WAT      O20001   1.085   6.582   4.010
 6660WAT     H120002   1.121   6.522   3.944
 6660WAT     H220003   0.997   6.549   4.027
 6661WAT      O20004   0.694   6.658   3.751
 6661WAT     H120005   0.763   6.712   3.789
 6661WAT     H220006   0.615   6.712   3.754
 6662WAT      O20007   0.624   6.358   3.712
 6662WAT     H120008   0.670   6.439   3.735
 6662WAT     H220009   0.589   6.326   3.795
 6663WAT      O20010   1.366   6.738   3.279
 6663WAT     H120011   1.344   6.666   3.338
 6663WAT     H220012   1.327   6.713   3.195
 6664WAT      O20013   1.325   6.530   3.445
 6664WAT     H120014   1.296   6.576   3.524
 6664WAT     H220015   1.404   6.484   3.472
 6665WAT      O20016   1.064   5.818   4.480
 6665WAT     H120017   1.100   5.735   4.513
 6665WAT     H220018   0.978   5.824   4.522
 6666WAT      O20019   1.400   5.713   3.561
 6666WAT     H120020   1.337   5.724   3.490
 6666WAT     H220021   1.351   5.735   3.640
 6667WAT      O20022   0.597   5.941   3.703
 6667WAT     H120023   0.526   5.988   3.747
 6667WAT     H220024   0.626   5.875   3.766
 6668WAT      O20025   0.760   6.083   4.503
 6668WAT     H120026   0.810   6.130   4.569
 6668WAT     H220027   0.774   5.991   4.524
 6669WAT      O20028   1.000   5.613   3.847
 6669WAT     H120029   0.988   5.615   3.752
 6669WAT     H220030   1.095   5.618   3.859
 6670WAT      O20031   0.417   5.772   3.440
 6670WAT     H120032   0.502   5.816   3.434
 6670WAT     H220033   0.381   5.803   3.523
 6671WAT      O20034   1.480   5.705   4.587
 6671WAT     H120035   1.430   5.779   4.621
 6671WAT     H220036   1.562   5.743   4.555
 6672WAT      O20037   1.310   6.229   3.932
 6672WAT     H120038   1.215   6.230   3.949
 6672WAT     H220039   1.341   6.150   3.976
 6673WAT      O20040   0.307   6.397   3.288
 6673WAT     H120041   0.384   6.386   3.344
 6673WAT     H220042   0.315   6.328   3.223
 6674WAT      O20043   0.177   6.140   3.356
 6674WAT     H120044   0.185   6.046   3.367
 6674WAT     H220045   0.266   6.173   3.367
 6675WAT      O20046   1.041   6.685   4.980
 6675WAT     H120047   0.981   6.687   4.906
 6675WAT     H220048   1.011   6.611   5.034
 6676WAT      O20049   0.620   6.595   3.235
 6676WAT     H120050   0.609   6.533   3.308
 6676WAT     H220051   0.603   6.542   3.157
 6677WAT      O20052   0.635   6.463   4.833
 6677WAT     H120053   0.558   6.520   4.825
 6677WAT     H220054   0.653   6.434   4.744
 6678WAT      O20055   0.944   6.501   3.296
 6678WAT     H120056   0.889   6.546   3.360
 6678WAT     H220057   1.006   6.450   3.348
 6679WAT      O20058   1.349   6.636   4.889
 6679WAT     H120059   1.423   6.670   4.838
 6679WAT     H220060   1.273   6.653   4.833
 6680WAT      O20061   0.511   6.397   3.485
 6680WAT     H120062   0.553   6.380   3.569
 6680WAT     H220063   0.523   6.316   3.436
 6681WAT      O20064   0.327   5.995   4.766
 6681WAT     H120065   0.274   5.946   4.703
 6681WAT     H220066   0.394   6.038   4.712
 6682WAT      O20067   0.762   6.299   3.210
 6682WAT     H120068   0.814   6.228   3.173
 6682WAT     H220069   0.827   6.363   3.240
 6683WAT      O20070   1.217   6.441   4.742
 6683WAT     H120071   1.258   6.457   4.827
 6683WAT     H220072   1.123   6.454   4.759
 6684WAT      O20073   1.264   6.175   4.943
 6684WAT     H120074   1.322   6.100   4.934
 6684WAT     H220075   1.281   6.228   4.865
 6685WAT      O20076   0.376   5.691   4.774
 6685WAT     H120077   0.366   5.630   4.701
 6685WAT     H220078   0.318   5.764   4.751
 6686WAT      O20079   0.652   5.547   4.477
 6686WAT     H120080   0.607   5.549   4.393
 6686WAT     H220081   0.589   5.507   4.537
 6687WAT      O20082   0.693   6.437   4.539
 6687WAT     H120083   0.735   6.521   4.522
 6687WAT     H220084   0.601   6.450   4.516
 6688WAT      O20085   0.926   6.210   4.678
 6688WAT     H120086   0.938   6.150   4.752
 6688WAT     H220087   1.012   6.214   4.636
 6689WAT      O20088   1.160   6.265   4.535
 6689WAT     H120089   1.108   6.318   4.475
 6689WAT     H220090   1.195   6.328   4.598
 6690WAT      O20091   0.400   6.004   3.180
 6690WAT     H120092   0.380   5.918   3.216
 6690WAT     H220093   0.383   5.995   3.086
 6691WAT      O20094   0.603   5.864   4.803
 6691WAT     H120095   0.662   5.833   4.872
 6691WAT     H220096   0.521   5.817   4.819
 6692WAT      O20097   1.085   5.826   4.827
 6692WAT     H120098   1.016   5.760   4.820
 6692WAT     H220099   1.157   5.781   4.871
 6693WAT      O20100   1.148   5.485   3.433
 6693WAT     H120101   1.176   5.401   3.468
 6693WAT     H220102   1.071   5.508   3.484
 6694WAT      O20103   0.280   5.714   3.179
 6694WAT     H120104   0.310   5.715   3.088
 6694WAT     H220105   0.354   5.679   3.228
 6695WAT      O20106   0.602   5.608   3.277
 6695WAT     H120107   0.567   5.541   3.219
 6695WAT     H220108   0.622   5.562   3.359
 6696WAT      O20109   0.182   6.645   3.262
 6696WAT     H120110   0.226   6.699   3.327
 6696WAT     H220111   0.231   6.562   3.263
 6697WAT      O20112   1.586   6.409   3.494
 6697WAT     H120113   1.662   6.466   3.504
 6697WAT     H220114   1.587   6.352   3.571
 6698WAT      O20115   1.686   6.494   3.978
 6698WAT     H120116   1.724   6.416   3.937
 6698WAT     H220117   1.750   6.563   3.960
 6699WAT      O20118   1.385   6.633   4.519
 6699WAT     H120119   1.303   6.676   4.546
 6699WAT     H220120   1.426   6.694   4.458
 6700WAT      O20121   1.591   6.438   3.209
 6700WAT     H120122   1.619   6.529   3.197
 6700WAT     H220123   1.572   6.432   3.303
 6701WAT      O20124   1.231   5.741   3.339
 6701WAT     H120125   1.273   5.722   3.255
 6701WAT     H220126   1.200   5.656   3.370
 6702WAT      O20127   1.581   6.232   3.709
 6702WAT     H120128   1.543   6.155   3.665
 6702WAT     H220129   1.508   6.270   3.757
 6703WAT      O20130   1.520   6.147   4.672
 6703WAT     H120131   1.497   6.124   4.582
 6703WAT     H220132   1.546   6.239   4.668
 6704WAT      O20133   1.364   5.669   4.950
 6704WAT     H120134   1.451   5.670   4.988
 6704WAT     H220135   1.365   5.596   4.889
 6705WAT      O20136   1.508   6.055   4.039
 6705WAT     H120137   1.561   6.005   3.976
 6705WAT     H220138   1.567   6.068   4.113
 6706WAT      O20139   1.526   6.063   4.391
 6706WAT     H120140   1.431   6.060   4.402
 6706WAT     H220141   1.544   6.154   4.367
 6707WAT      O20142   1.457   5.980   3.633
 6707WAT     H120143   1.507   5.957   3.711
 6707WAT     H220144   1.437   5.896   3.591
 6708WAT      O20145   1.600   5.844   3.886
 6708WAT     H120146   1.589   5.828   3.980
 6708WAT     H220147   1.676   5.791   3.862
 6709WAT      O20148   1.435   5.438   4.532
 6709WAT     H120149   1.498   5.499   4.568
 6709WAT     H220150   1.449   5.441   4.437
 6710WAT      O20151   1.689   5.627   3.210
 6710WAT     H120152   1.781   5.614   3.189
 6710WAT     H220153   1.687   5.635   3.305
 6711WAT      O20154   1.696   5.704   3.473
 6711WAT     H120155   1.617   5.698   3.526
 6711WAT     H220156   1.717   5.798   3.472
 6712WAT      O20157   0.772   5.553   4.823
 6712WAT     H120158   0.766   5.612   4.898
 6712WAT     H220159   0.866   5.542   4.808
 6713WAT      O20160   1.036   5.519   4.787
 6713WAT     H120161   1.097   5.551   4.720
 6713WAT     H220162   1.090   5.470   4.849
 6714WAT      O20163   1.110   5.375   4.419
 6714WAT     H120164   1.022   5.408   4.399
 6714WAT     H220165   1.099   5.328   4.502
 6715WAT      O20166   1.200   5.596   4.558
 6715WAT     H120167   1.167   5.514   4.520
 6715WAT     H220168   1.295   5.592   4.545
 6716WAT      O20169   0.884   5.467   4.313
 6716WAT     H120170   0.806   5.514   4.341
 6716WAT     H220171   0.855   5.376   4.302
 6717WAT      O20172   1.340   5.537   4.118
 6717WAT     H120173   1.384   5.532   4.033
 6717WAT     H220174   1.313   5.629   4.125
 6718WAT      O20175   1.526   5.500   3.919
 6718WAT     H120176   1.520   5.406   3.904
 6718WAT     H220177   1.604   5.511   3.973
 6719WAT      O20178   0.673   5.709   3.864
 6719WAT     H120179   0.592   5.671   3.830
 6719WAT     H220180   0.723   5.633   3.895
 6720WAT      O20181   1.123   5.375   3.988
 6720WAT     H120182   1.183   5.432   4.036
 6720WAT     H220183   1.049   5.432   3.966
 6721WAT      O20184   1.437   5.415   3.516
 6721WAT     H120185   1.457   5.505   3.542
 6721WAT     H220186   1.359   5.392   3.565
 6722WAT      O20187   0.256   5.550   3.419
 6722WAT     H120188   0.309   5.471   3.406
 6722WAT     H220189   0.319   5.618   3.443
 6723WAT      O20190   0.475   5.524   3.725
 6723WAT     H120191   0.412   5.454   3.741
 6723WAT     H220192   0.421   5.600   3.703
 6724WAT      O20193   0.488   5.452   4.968
 6724WAT     H120194   0.460   5.502   4.892
 6724WAT     H220195   0.526   5.372   4.932
 6725WAT      O20196   1.148   5.393   5.026
 6725WAT     H120197   1.137   5.425   5.116
 6725WAT     H220198   1.230   5.433   4.996
 6726WAT      O20199   1.039   6.195   2.062
 6726WAT     H120200   1.031   6.104   2.035
 6726WAT     H220201   0.997   6.245   1.992
 6727WAT      O20202   0.852   6.373   2.251
 6727WAT     H120203   0.774   6.325   2.280
 6727WAT     H220204   0.917   6.305   2.233
 6728WAT      O20205   0.796   6.640   2.251
 6728WAT     H120206   0.789   6.546   2.235
 6728WAT     H220207   0.872   6.649   2.308
 6729WAT      O20208   0.899   5.921   2.274
 6729WAT     H120209   0.937   5.834   2.263
 6729WAT     H220210   0.889   5.955   2.185
 6730WAT      O20211   0.312   5.758   1.820
 6730WAT     H120212   0.323   5.848   1.851
 6730WAT     H220213   0.221   5.754   1.791
 6731WAT      O20214   1.277   5.671   1.967
 6731WAT     H120215   1.359   5.622   1.971
 6731WAT     H220216   1.281   5.730   2.043
 6732WAT      O20217   0.496   6.055   2.253
 6732WAT     H120218   0.547   6.105   2.317
 6732WAT     H220219   0.549   5.978   2.236
 6733WAT      O20220   1.706   5.872   2.624
 6733WAT     H120221   1.636   5.911   2.572
 6733WAT     H220222   1.733   5.942   2.684
 6734WAT      O20223   0.324   5.519   2.680
 6734WAT     H120224   0.325   5.571   2.599
 6734WAT     H220225   0.242   5.471   2.678
 6735WAT      O20226   0.963   6.530   1.830
 6735WAT     H120227   0.901   6.577   1.774
 6735WAT     H220228   1.014   6.600   1.872
 6736WAT      O20229   0.449   6.483   2.498
 6736WAT     H120230   0.416   6.546   2.562
 6736WAT     H220231   0.467   6.536   2.420
 6737WAT      O20232   1.301   5.865   2.245
 6737WAT     H120233   1.230   5.893   2.303
 6737WAT     H220234   1.337   5.946   2.208
 6738WAT      O20235   0.293   5.690   2.481
 6738WAT     H120236   0.327   5.775   2.451
 6738WAT     H220237   0.199   5.705   2.492
 6739WAT      O20238   1.608   5.809   2.284
 6739WAT     H120239   1.513   5.813   2.297
 6739WAT     H220240   1.640   5.891   2.322
 6740WAT      O20241   0.661   5.439   2.113
 6740WAT     H120242   0.692   5.384   2.042
 6740WAT     H220243   0.568   5.453   2.095
 6741WAT      O20244   1.346   6.683   1.851
 6741WAT     H120245   1.334   6.589   1.864
 6741WAT     H220246   1.345   6.719   1.940
 6742WAT      O20247   1.156   6.501   2.475
 6742WAT     H120248   1.198   6.480   2.392
 6742WAT     H220249   1.228   6.527   2.532
 6743WAT      O20250   0.900   6.246   1.787
 6743WAT     H120251   0.807   6.239   1.810
 6743WAT     H220252   0.915   6.339   1.775
 6744WAT      O20253   0.898   5.873   1.486
 6744WAT     H120254   0.804   5.889   1.495
 6744WAT     H220255   0.930   5.945   1.432
 6745WAT      O20256   1.551   6.341   2.484
 6745WAT     H120257   1.468   6.348   2.437
 6745WAT     H220258   1.610   6.399   2.437
 6746WAT      O20259   1.303   6.402   1.837
 6746WAT     H120260   1.241   6.368   1.772
 6746WAT     H220261   1.301   6.337   1.908
 6747WAT      O20262   1.247   6.020   2.579
 6747WAT     H120263   1.206   6.102   2.604
 6747WAT     H220264   1.174   5.961   2.560
 6748WAT      O20265   0.460   6.298   2.065
 6748WAT     H120266   0.420   6.227   2.015
 6748WAT     H220267   0.469   6.264   2.154
 6749WAT      O20268   0.507   6.667   2.281
 6749WAT     H120269   0.477   6.606   2.213
 6749WAT     H220270   0.602   6.671   2.270
 6750WAT      O20271   0.332   5.976   2.443
 6750WAT     H120272   0.387   5.987   2.365
 6750WAT     H220273   0.383   6.013   2.514
 6751WAT      O20274   0.416   6.641   2.946
 6751WAT     H120275   0.327   6.663   2.971
 6751WAT     H220276   0.419   6.653   2.852
 6752WAT      O20277   1.120   6.326   1.538
 6752WAT     H120278   1.164   6.242   1.523
 6752WAT     H220279   1.192   6.389   1.546
 6753WAT      O20280   0.299   6.328   2.804
 6753WAT     H120281   0.285   6.415   2.841
 6753WAT     H220282   0.211   6.294   2.789
 6754WAT      O20283   1.479   5.451   1.369
 6754WAT     H120284   1.447   5.460   1.459
 6754WAT     H220285   1.555   5.509   1.364
 6755WAT      O20286   1.614   6.719   2.870
 6755WAT     H120287   1.627   6.696   2.779
 6755WAT     H220288   1.618   6.636   2.918
 6756WAT      O20289   1.600   5.925   2.967
 6756WAT     H120290   1.538   5.976   2.914
 6756WAT     H220291   1.567   5.835   2.961
 6757WAT      O20292   0.377   5.522   2.153
 6757WAT     H120293   0.333   5.600   2.120
 6757WAT     H220294   0.433   5.554   2.224
 6758WAT      O20295   0.806   5.809   2.714
 6758WAT     H120296   0.759   5.830   2.795
 6758WAT     H220297   0.765   5.727   2.683
 6759WAT      O20298   1.306   5.931   2.827
 6759WAT     H120299   1.221   5.901   2.859
 6759WAT     H220300   1.290   5.955   2.735
 6760WAT      O20301   1.015   6.081   3.037
 6760WAT     H120302   1.048   5.997   3.003
 6760WAT     H220303   1.094   6.133   3.051
 6761WAT      O20304   0.689   5.484   1.641
 6761WAT     H120305   0.626   5.484   1.714
 6761WAT     H220306   0.680   5.397   1.602
 6762WAT      O20307   0.581   5.577   2.339
 6762WAT     H120308   0.610   5.667   2.331
 6762WAT     H220309   0.636   5.528   2.278
 6763WAT      O20310   0.356   6.034   1.926
 6763WAT     H120311   0.334   6.013   2.017
 6763WAT     H220312   0.278   6.078   1.892
 6764WAT      O20313   1.079   6.035   1.786
 6764WAT     H120314   1.019   6.107   1.768
 6764WAT     H220315   1.134   6.029   1.708
 6765WAT      O20316   0.600   6.124   2.993
 6765WAT     H120317   0.591   6.030   2.978
 6765WAT     H220318   0.684   6.146   2.953
 6766WAT      O20319   0.940   5.899   1.989
 6766WAT     H120320   0.979   5.930   1.908
 6766WAT     H220321   0.976   5.811   2.000
 6767WAT      O20322   0.771   5.774   3.115
 6767WAT     H120323   0.702   5.754   3.178
 6767WAT     H220324   0.845   5.802   3.168
 6768WAT      O20325   0.998   6.158   2.399
 6768WAT     H120326   0.925   6.209   2.433
 6768WAT     H220327   0.959   6.076   2.368
 6769WAT      O20328   0.642   5.825   2.239
 6769WAT     H120329   0.642   5.781   2.154
 6769WAT     H220330   0.732   5.857   2.250
 6770WAT      O20331   0.648   5.925   1.538
 6770WAT     H120332   0.660   5.921   1.633
 6770WAT     H220333   0.610   6.012   1.523
 6771WAT      O20334   1.045   5.703   2.340
 6771WAT     H120335   1.046   5.748   2.424
 6771WAT     H220336   1.020   5.613   2.361
 6772WAT      O20337   0.549   6.156   1.478
 6772WAT     H120338   0.493   6.112   1.415
 6772WAT     H220339   0.620   6.192   1.425
 6773WAT      O20340   1.387   5.444   2.924
 6773WAT     H120341   1.420   5.371   2.976
 6773WAT     H220342   1.391   5.412   2.833
 6774WAT      O20343   0.672   6.231   2.414
 6774WAT     H120344   0.709   6.184   2.488
 6774WAT     H220345   0.653   6.319   2.448
 6775WAT      O20346   0.451   6.135   2.646
 6775WAT     H120347   0.421   6.223   2.668
 6775WAT     H220348   0.547   6.141   2.649
 6776WAT      O20349   0.304   6.556   1.705
 6776WAT     H120350   0.227   6.502   1.689
 6776WAT     H220351   0.377   6.504   1.671
 6777WAT      O20352   1.380   6.456   2.284
 6777WAT     H120353   1.452   6.505   2.245
 6777WAT     H220354   1.360   6.388   2.220
 6778WAT      O20355   0.926   5.595   1.699
 6778WAT     H120356   0.845   5.545   1.691
 6778WAT     H220357   0.907   5.679   1.657
 6779WAT      O20358   0.918   6.463   2.873
 6779WAT     H120359   0.911   6.371   2.848
 6779WAT     H220360   0.855   6.472   2.945
 6780WAT      O20361   1.197   6.032   1.528
 6780WAT     H120362   1.286   6.063   1.511
 6780WAT     H220363   1.194   5.945   1.489
 6781WAT      O20364   0.308   6.523   2.069
 6781WAT     H120365   0.360   6.442   2.064
 6781WAT     H220366   0.263   6.517   2.153
 6782WAT      O20367   0.797   6.649   1.596
 6782WAT     H120368   0.831   6.724   1.547
 6782WAT     H220369   0.714   6.681   1.633
 6783WAT      O20370   0.377   6.265   3.049
 6783WAT     H120371   0.347   6.280   2.959
 6783WAT     H220372   0.454   6.209   3.039
 6784WAT      O20373   1.425   6.163   1.475
 6784WAT     H120374   1.416   6.206   1.390
 6784WAT     H220375   1.496   6.209   1.518
 6785WAT      O20376   1.532   6.409   2.783
 6785WAT     H120377   1.460   6.468   2.763
 6785WAT     H220378   1.585   6.408   2.703
 6786WAT      O20379   1.085   6.582   2.133
 6786WAT     H120380   1.121   6.522   2.067
 6786WAT     H220381   0.997   6.549   2.150
 6787WAT      O20382   0.694   6.658   1.873
 6787WAT     H120383   0.763   6.712   1.912
 6787WAT     H220384   0.615   6.712   1.877
 6788WAT      O20385   0.624   6.358   1.835
 6788WAT     H120386   0.670   6.439   1.857
 6788WAT     H220387   0.589   6.326   1.918
 6789WAT      O20388   1.366   6.738   1.402
 6789WAT     H120389   1.344   6.666   1.461
 6789WAT     H220390   1.327   6.713   1.318
 6790WAT      O20391   1.325   6.530   1.568
 6790WAT     H120392   1.296   6.576   1.647
 6790WAT     H220393   1.404   6.484   1.595
 6791WAT      O20394   1.064   5.818   2.603
 6791WAT     H120395   1.100   5.735   2.636
 6791WAT     H220396   0.978   5.824   2.645
 6792WAT      O20397   1.400   5.713   1.684
 6792WAT     H120398   1.337   5.724   1.612
 6792WAT     H220399   1.351   5.735   1.763
 6793WAT      O20400   0.597   5.941   1.825
 6793WAT     H120401   0.526   5.988   1.870
 6793WAT     H220402   0.626   5.875   1.889
 6794WAT      O20403   0.760   6.083   2.625
 6794WAT     H120404   0.810   6.130   2.692
 6794WAT     H220405   0.774   5.991   2.646
 6795WAT      O20406   1.000   5.613   1.969
 6795WAT     H120407   0.988   5.615   1.874
 6795WAT     H220408   1.095   5.618   1.981
 6796WAT      O20409   0.417   5.772   1.563
 6796WAT     H120410   0.502   5.816   1.556
 6796WAT     H220411   0.381   5.803   1.646
 6797WAT      O20412   1.480   5.705   2.710
 6797WAT     H120413   1.430   5.779   2.744
 6797WAT     H220414   1.562   5.743   2.678
 6798WAT      O20415   1.310   6.229   2.054
 6798WAT     H120416   1.215   6.230   2.072
 6798WAT     H220417   1.341   6.150   2.099
 6799WAT      O20418   0.307   6.397   1.410
 6799WAT     H120419   0.384   6.386   1.467
 6799WAT     H220420   0.315   6.328   1.345
 6800WAT      O20421   0.177   6.140   1.479
 6800WAT     H120422   0.185   6.046   1.490
 6800WAT     H220423   0.266   6.173   1.489
 6801WAT      O20424   1.041   6.685   3.103
 6801WAT     H120425   0.981   6.687   3.029
 6801WAT     H220426   1.011   6.611   3.156
 6802WAT      O20427   0.620   6.595   1.358
 6802WAT     H120428   0.609   6.533   1.430
 6802WAT     H220429   0.603   6.542   1.279
 6803WAT      O20430   0.635   6.463   2.956
 6803WAT     H120431   0.558   6.520   2.947
 6803WAT     H220432   0.653   6.434   2.866
 6804WAT      O20433   0.944   6.501   1.418
 6804WAT     H120434   0.889   6.546   1.483
 6804WAT     H220435   1.006   6.450   1.470
 6805WAT      O20436   1.349   6.636   3.011
 6805WAT     H120437   1.423   6.670   2.961
 6805WAT     H220438   1.273   6.653   2.956
 6806WAT      O20439   0.511   6.397   1.608
 6806WAT     H120440   0.553   6.380   1.692
 6806WAT     H220441   0.523   6.316   1.558
 6807WAT      O20442   0.327   5.995   2.888
 6807WAT     H120443   0.274   5.946   2.826
 6807WAT     H220444   0.394   6.038   2.835
 6808WAT      O20445   0.762   6.299   1.333
 6808WAT     H120446   0.814   6.228   1.296
 6808WAT     H220447   0.827   6.363   1.363
 6809WAT      O20448   1.217   6.441   2.865
 6809WAT     H120449   1.258   6.457   2.950
 6809WAT     H220450   1.123   6.454   2.881
 6810WAT      O20451   1.264   6.175   3.065
 6810WAT     H120452   1.322   6.100   3.056
 6810WAT     H220453   1.281   6.228   2.988
 6811WAT      O20454   0.376   5.691   2.896
 6811WAT     H120455   0.366   5.630   2.824
 6811WAT     H220456   0.318   5.764   2.874
 6812WAT      O20457   0.652   5.547   2.600
 6812WAT     H120458   0.607   5.549   2.515
 6812WAT     H220459   0.589   5.507   2.659
 6813WAT      O20460   0.693   6.437   2.662
 6813WAT     H120461   0.735   6.521   2.645
 6813WAT     H220462   0.601   6.450   2.639
 6814WAT      O20463   0.926   6.210   2.800
 6814WAT     H120464   0.938   6.150   2.874
 6814WAT     H220465   1.012   6.214   2.758
 6815WAT      O20466   1.160   6.265   2.658
 6815WAT     H120467   1.108   6.318   2.597
 6815WAT     H220468   1.195   6.328   2.721
 6816WAT      O20469   0.400   6.004   1.302
 6816WAT     H120470   0.380   5.918   1.338
 6816WAT     H220471   0.383   5.995   1.209
 6817WAT      O20472   0.603   5.864   2.926
 6817WAT     H120473   0.662   5.833   2.995
 6817WAT     H220474   0.521   5.817   2.942
 6818WAT      O20475   1.085   5.826   2.949
 6818WAT     H120476   1.016   5.760   2.943
 6818WAT     H220477   1.157   5.781   2.994
 6819WAT      O20478   1.148   5.485   1.555
 6819WAT     H120479   1.176   5.401   1.591
 6819WAT     H220480   1.071   5.508   1.607
 6820WAT      O20481   0.280   5.714   1.301
 6820WAT     H120482   0.310   5.715   1.210
 6820WAT     H220483   0.354   5.679   1.351
 6821WAT      O20484   0.602   5.608   1.400
 6821WAT     H120485   0.567   5.541   1.342
 6821WAT     H220486   0.622   5.562   1.481
 6822WAT      O20487   0.182   6.645   1.384
 6822WAT     H120488   0.226   6.699   1.450
 6822WAT     H220489   0.231   6.562   1.385
 6823WAT      O20490   1.586   6.409   1.616
 6823WAT     H120491   1.662   6.466   1.627
 6823WAT     H220492   1.587   6.352   1.693
 6824WAT      O20493   1.686   6.494   2.101
 6824WAT     H120494   1.724   6.416   2.060
 6824WAT     H220495   1.750   6.563   2.083
 6825WAT      O20496   1.385   6.633   2.642
 6825WAT     H120497   1.303   6.676   2.668
 6825WAT     H220498   1.426   6.694   2.581
 6826WAT      O20499   1.591   6.438   1.332
 6826WAT     H120500   1.619   6.529   1.319
 6826WAT     H220501   1.572   6.432   1.426
 6827WAT      O20502   1.231   5.741   1.461
 6827WAT     H120503   1.273   5.722   1.377
 6827WAT     H220504   1.200   5.656   1.493
 6828WAT      O20505   1.581   6.232   1.831
 6828WAT     H120506   1.543   6.155   1.788
 6828WAT     H220507   1.508   6.270   1.880
 6829WAT      O20508   1.520   6.147   2.795
 6829WAT     H120509   1.497   6.124   2.705
 6829WAT     H220510   1.546   6.239   2.790
 6830WAT      O20511   1.364   5.669   3.072
 6830WAT     H120512   1.451   5.670   3.111
 6830WAT     H220513   1.365   5.596   3.011
 6831WAT      O20514   1.508   6.055   2.161
 6831WAT     H120515   1.561   6.005   2.098
 6831WAT     H220516   1.567   6.068   2.236
 6832WAT      O20517   1.526   6.063   2.514
 6832WAT     H120518   1.431   6.060   2.525
 6832WAT     H220519   1.544   6.154   2.490
 6833WAT      O20520   1.457   5.980   1.755
 6833WAT     H120521   1.507   5.957   1.834
 6833WAT     H220522   1.437   5.896   1.714
 6834WAT      O20523   1.600   5.844   2.009
 6834WAT     H120524   1.589   5.828   2.102
 6834WAT     H220525   1.676   5.791   1.984
 6835WAT      O20526   1.435   5.438   2.654
 6835WAT     H120527   1.498   5.499   2.691
 6835WAT     H220528   1.449   5.441   2.560
 6836WAT      O20529   1.689   5.627   1.333
 6836WAT     H120530   1.781   5.614   1.312
 6836WAT     H220531   1.687   5.635   1.428
 6837WAT      O20532   1.696   5.704   1.595
 6837WAT     H120533   1.617   5.698   1.648
 6837WAT     H220534   1.717   5.798   1.594
 6838WAT      O20535   0.772   5.553   2.945
 6838WAT     H120536   0.766   5.612   3.020
 6838WAT     H220537   0.866   5.542   2.931
 6839WAT      O20538   1.036   5.519   2.909
 6839WAT     H120539   1.097   5.551   2.843
 6839WAT     H220540   1.090   5.470   2.971
 6840WAT      O20541   1.110   5.375   2.542
 6840WAT     H120542   1.022   5.408   2.522
 6840WAT     H220543   1.099   5.328   2.624
 6841WAT      O20544   1.200   5.596   2.680
 6841WAT     H120545   1.167   5.514   2.642
 6841WAT     H220546   1.295   5.592   2.668
 6842WAT      O20547   0.884   5.467   2.436
 6842WAT     H120548   0.806   5.514   2.464
 6842WAT     H220549   0.855   5.376   2.425
 6843WAT      O20550   1.340   5.537   2.240
 6843WAT     H120551   1.384   5.532   2.155
 6843WAT     H220552   1.313   5.629   2.247
 6844WAT      O20553   1.526   5.500   2.041
 6844WAT     H120554   1.520   5.406   2.027
 6844WAT     H220555   1.604   5.511   2.096
 6845WAT      O20556   0.673   5.709   1.987
 6845WAT     H120557   0.592   5.671   1.953
 6845WAT     H220558   0.723   5.633   2.017
 6846WAT      O20559   1.123   5.375   2.111
 6846WAT     H120560   1.183   5.432   2.158
 6846WAT     H220561   1.049   5.432   2.088
 6847WAT      O20562   1.437   5.415   1.638
 6847WAT     H120563   1.457   5.505   1.665
 6847WAT     H220564   1.359   5.392   1.687
 6848WAT      O20565   0.256   5.550   1.542
 6848WAT     H120566   0.309   5.471   1.529
 6848WAT     H220567   0.319   5.618   1.565
 6849WAT      O20568   0.475   5.524   1.847
 6849WAT     H120569   0.412   5.454   1.864
 6849WAT     H220570   0.421   5.600   1.826
 6850WAT      O20571   0.488   5.452   3.091
 6850WAT     H120572   0.460   5.502   3.014
 6850WAT     H220573   0.526   5.372   3.054
 6851WAT      O20574   1.148   5.393   3.149
 6851WAT     H120575   1.137   5.425   3.238
 6851WAT     H220576   1.230   5.433   3.119
 6852WAT      O20577   0.852   6.373   0.373
 6852WAT     H120578   0.774   6.325   0.402
 6852WAT     H220579   0.917   6.305   0.356
 6853WAT      O20580   0.796   6.640   0.374
 6853WAT     H120581   0.789   6.546   0.358
 6853WAT     H220582   0.872   6.649   0.431
 6854WAT      O20583   0.899   5.921   0.397
 6854WAT     H120584   0.937   5.834   0.385
 6854WAT     H220585   0.889   5.955   0.307
 6855WAT      O20586   0.496   6.055   0.376
 6855WAT     H120587   0.547   6.105   0.440
 6855WAT     H220588   0.549   5.978   0.358
 6856WAT      O20589   1.706   5.872   0.746
 6856WAT     H120590   1.636   5.911   0.694
 6856WAT     H220591   1.733   5.942   0.806
 6857WAT      O20592   0.324   5.519   0.803
 6857WAT     H120593   0.325   5.571   0.722
 6857WAT     H220594   0.242   5.471   0.800
 6858WAT      O20595   0.449   6.483   0.620
 6858WAT     H120596   0.416   6.546   0.685
 6858WAT     H220597   0.467   6.536   0.542
 6859WAT      O20598   1.301   5.865   0.367
 6859WAT     H120599   1.230   5.893   0.425
 6859WAT     H220600   1.337   5.946   0.331
 6860WAT      O20601   0.293   5.690   0.603
 6860WAT     H120602   0.327   5.775   0.574
 6860WAT     H220603   0.199   5.705   0.615
 6861WAT      O20604   1.608   5.809   0.406
 6861WAT     H120605   1.513   5.813   0.419
 6861WAT     H220606   1.640   5.891   0.445
 6862WAT      O20607   1.156   6.501   0.598
 6862WAT     H120608   1.198   6.480   0.514
 6862WAT     H220609   1.228   6.527   0.655
 6863WAT      O20610   1.551   6.341   0.607
 6863WAT     H120611   1.468   6.348   0.559
 6863WAT     H220612   1.610   6.399   0.560
 6864WAT      O20613   1.247   6.020   0.701
 6864WAT     H120614   1.206   6.102   0.727
 6864WAT     H220615   1.174   5.961   0.682
 6865WAT      O20616   0.507   6.667   0.404
 6865WAT     H120617   0.477   6.606   0.336
 6865WAT     H220618   0.602   6.671   0.393
 6866WAT      O20619   0.332   5.976   0.566
 6866WAT     H120620   0.387   5.987   0.488
 6866WAT     H220621   0.383   6.013   0.637
 6867WAT      O20622   0.416   6.641   1.069
 6867WAT     H120623   0.327   6.663   1.094
 6867WAT     H220624   0.419   6.653   0.974
 6868WAT      O20625   0.299   6.328   0.927
 6868WAT     H120626   0.285   6.415   0.963
 6868WAT     H220627   0.211   6.294   0.912
 6869WAT      O20628   1.614   6.719   0.993
 6869WAT     H120629   1.627   6.696   0.901
 6869WAT     H220630   1.618   6.636   1.040
 6870WAT      O20631   1.600   5.925   1.090
 6870WAT     H120632   1.538   5.976   1.037
 6870WAT     H220633   1.567   5.835   1.084
 6871WAT      O20634   0.377   5.522   0.276
 6871WAT     H120635   0.333   5.600   0.243
 6871WAT     H220636   0.433   5.554   0.347
 6872WAT      O20637   0.806   5.809   0.836
 6872WAT     H120638   0.759   5.830   0.917
 6872WAT     H220639   0.765   5.727   0.806
 6873WAT      O20640   1.306   5.931   0.949
 6873WAT     H120641   1.221   5.901   0.981
 6873WAT     H220642   1.290   5.955   0.858
 6874WAT      O20643   1.015   6.081   1.159
 6874WAT     H120644   1.048   5.997   1.125
 6874WAT     H220645   1.094   6.133   1.174
 6875WAT      O20646   0.581   5.577   0.462
 6875WAT     H120647   0.610   5.667   0.454
 6875WAT     H220648   0.636   5.528   0.400
 6876WAT      O20649   0.600   6.124   1.115
 6876WAT     H120650   0.591   6.030   1.100
 6876WAT     H220651   0.684   6.146   1.076
 6877WAT      O20652   0.771   5.774   1.238
 6877WAT     H120653   0.702   5.754   1.301
 6877WAT     H220654   0.845   5.802   1.291
 6878WAT      O20655   0.998   6.158   0.521
 6878WAT     H120656   0.925   6.209   0.556
 6878WAT     H220657   0.959   6.076   0.491
 6879WAT      O20658   0.642   5.825   0.362
 6879WAT     H120659   0.642   5.781   0.277
 6879WAT     H220660   0.732   5.857   0.372
 6880WAT      O20661   1.045   5.703   0.462
 6880WAT     H120662   1.046   5.748   0.547
 6880WAT     H220663   1.020   5.613   0.484
 6881WAT      O20664   1.387   5.444   1.046
 6881WAT     H120665   1.420   5.371   1.099
 6881WAT     H220666   1.391   5.412   0.956
 6882WAT      O20667   0.672   6.231   0.536
 6882WAT     H120668   0.709   6.184   0.611
 6882WAT     H220669   0.653   6.319   0.570
 6883WAT      O20670   0.451   6.135   0.768
 6883WAT     H120671   0.421   6.223   0.791
 6883WAT     H220672   0.547   6.141   0.772
 6884WAT      O20673   1.380   6.456   0.407
 6884WAT     H120674   1.452   6.505   0.368
 6884WAT     H220675   1.360   6.388   0.343
 6885WAT      O20676   0.918   6.463   0.996
 6885WAT     H120677   0.911   6.371   0.970
 6885WAT     H220678   0.855   6.472   1.067
 6886WAT      O20679   0.308   6.523   0.192
 6886WAT     H120680   0.360   6.442   0.186
 6886WAT     H220681   0.263   6.517   0.276
 6887WAT      O20682   0.377   6.265   1.171
 6887WAT     H120683   0.347   6.280   1.081
 6887WAT     H220684   0.454   6.209   1.162
 6888WAT      O20685   1.532   6.409   0.905
 6888WAT     H120686   1.460   6.468   0.886
 6888WAT     H220687   1.585   6.408   0.826
 6889WAT      O20688   1.085   6.582   0.255
 6889WAT     H120689   1.121   6.522   0.189
 6889WAT     H220690   0.997   6.549   0.272
 6890WAT      O20691   1.064   5.818   0.726
 6890WAT     H120692   1.100   5.735   0.758
 6890WAT     H220693   0.978   5.824   0.767
 6891WAT      O20694   0.760   6.083   0.748
 6891WAT     H120695   0.810   6.130   0.814
 6891WAT     H220696   0.774   5.991   0.769
 6892WAT      O20697   1.480   5.705   0.832
 6892WAT     H120698   1.430   5.779   0.866
 6892WAT     H220699   1.562   5.743   0.801
 6893WAT      O20700   1.310   6.229   0.177
 6893WAT     H120701   1.215   6.230   0.194
 6893WAT     H220702   1.341   6.150   0.221
 6894WAT      O20703   1.041   6.685   1.225
 6894WAT     H120704   0.981   6.687   1.151
 6894WAT     H220705   1.011   6.611   1.279
 6895WAT      O20706   0.635   6.463   1.078
 6895WAT     H120707   0.558   6.520   1.070
 6895WAT     H220708   0.653   6.434   0.989
 6896WAT      O20709   1.349   6.636   1.134
 6896WAT     H120710   1.423   6.670   1.084
 6896WAT     H220711   1.273   6.653   1.079
 6897WAT      O20712   0.327   5.995   1.011
 6897WAT     H120713   0.274   5.946   0.948
 6897WAT     H220714   0.394   6.038   0.958
 6898WAT      O20715   1.217   6.441   0.987
 6898WAT     H120716   1.258   6.457   1.072
 6898WAT     H220717   1.123   6.454   1.004
 6899WAT      O20718   1.264   6.175   1.188
 6899WAT     H120719   1.322   6.100   1.179
 6899WAT     H220720   1.281   6.228   1.110
 6900WAT      O20721   0.376   5.691   1.019
 6900WAT     H120722   0.366   5.630   0.946
 6900WAT     H220723   0.318   5.764   0.996
 6901WAT      O20724   0.652   5.547   0.722
 6901WAT     H120725   0.607   5.549   0.638
 6901WAT     H220726   0.589   5.507   0.782
 6902WAT      O20727   0.693   6.437   0.784
 6902WAT     H120728   0.735   6.521   0.767
 6902WAT     H220729   0.601   6.450   0.761
 6903WAT      O20730   0.926   6.210   0.923
 6903WAT     H120731   0.938   6.150   0.997
 6903WAT     H220732   1.012   6.214   0.881
 6904WAT      O20733   1.160   6.265   0.780
 6904WAT     H120734   1.108   6.318   0.720
 6904WAT     H220735   1.195   6.328   0.843
 6905WAT      O20736   0.603   5.864   1.049
 6905WAT     H120737   0.662   5.833   1.117
 6905WAT     H220738   0.521   5.817   1.064
 6906WAT      O20739   1.085   5.826   1.072
 6906WAT     H120740   1.016   5.760   1.065
 6906WAT     H220741   1.157   5.781   1.116
 6907WAT      O20742   1.686   6.494   0.223
 6907WAT     H120743   1.724   6.416   0.183
 6907WAT     H220744   1.750   6.563   0.205
 6908WAT      O20745   1.385   6.633   0.765
 6908WAT     H120746   1.303   6.676   0.791
 6908WAT     H220747   1.426   6.694   0.703
 6909WAT      O20748   1.520   6.147   0.917
 6909WAT     H120749   1.497   6.124   0.827
 6909WAT     H220750   1.546   6.239   0.913
 6910WAT      O20751   1.364   5.669   1.195
 6910WAT     H120752   1.451   5.670   1.233
 6910WAT     H220753   1.365   5.596   1.134
 6911WAT      O20754   1.508   6.055   0.284
 6911WAT     H120755   1.561   6.005   0.221
 6911WAT     H220756   1.567   6.068   0.358
 6912WAT      O20757   1.526   6.063   0.636
 6912WAT     H120758   1.431   6.060   0.648
 6912WAT     H220759   1.544   6.154   0.613
 6913WAT      O20760   1.435   5.438   0.777
 6913WAT     H120761   1.498   5.499   0.814
 6913WAT     H220762   1.449   5.441   0.683
 6914WAT      O20763   0.772   5.553   1.068
 6914WAT     H120764   0.766   5.612   1.143
 6914WAT     H220765   0.866   5.542   1.053
 6915WAT      O20766   1.036   5.519   1.032
 6915WAT     H120767   1.097   5.551   0.965
 6915WAT     H220768   1.090   5.470   1.094
 6916WAT      O20769   1.110   5.375   0.664
 6916WAT     H120770   1.022   5.408   0.644
 6916WAT     H220771   1.099   5.328   0.747
 6917WAT      O20772   1.200   5.596   0.803
 6917WAT     H120773   1.167   5.514   0.765
 6917WAT     H220774   1.295   5.592   0.790
 6918WAT      O20775   0.884   5.467   0.558
 6918WAT     H120776   0.806   5.514   0.586
 6918WAT     H220777   0.855   5.376   0.547
 6919WAT      O20778   1.340   5.537   0.363
 6919WAT     H120779   1.384   5.532   0.278
 6919WAT     H220780   1.313   5.629   0.370
 6920WAT      O20781   1.123   5.375   0.233
 6920WAT     H120782   1.183   5.432   0.281
 6920WAT     H220783   1.049   5.432   0.211
 6921WAT      O20784   0.488   5.452   1.213
 6921WAT     H120785   0.460   5.502   1.137
 6921WAT     H220786   0.526   5.372   1.177
 6922WAT      O20787   1.148   5.393   1.271
 6922WAT     H120788   1.137   5.425   1.361
 6922WAT     H220789   1.230   5.433   1.242
 6923WAT      O20790   1.039   4.318   5.817
 6923WAT     H120791   1.031   4.226   5.790
 6923WAT     H220792   0.997   4.367   5.747
 6924WAT      O20793   0.852   4.495   6.005
 6924WAT     H120794   0.774   4.447   6.034
 6924WAT     H220795   0.917   4.427   5.988
 6925WAT      O20796   1.254   4.936   5.883
 6925WAT     H120797   1.208   4.859   5.916
 6925WAT     H220798   1.335   4.939   5.934
 6926WAT      O20799   0.252   4.930   6.113
 6926WAT     H120800   0.282   4.841   6.095
 6926WAT     H220801   0.326   4.986   6.090
 6927WAT      O20802   0.877   5.165   5.845
 6927WAT     H120803   0.815   5.210   5.788
 6927WAT     H220804   0.962   5.180   5.805
 6928WAT      O20805   0.796   4.763   6.006
 6928WAT     H120806   0.789   4.669   5.990
 6928WAT     H220807   0.872   4.772   6.063
 6929WAT      O20808   0.899   4.044   6.029
 6929WAT     H120809   0.937   3.956   6.018
 6929WAT     H220810   0.889   4.077   5.940
 6930WAT      O20811   0.312   3.881   5.575
 6930WAT     H120812   0.323   3.971   5.606
 6930WAT     H220813   0.221   3.876   5.546
 6931WAT      O20814   1.277   3.793   5.722
 6931WAT     H120815   1.359   3.744   5.726
 6931WAT     H220816   1.281   3.852   5.797
 6932WAT      O20817   0.496   4.178   6.008
 6932WAT     H120818   0.547   4.228   6.072
 6932WAT     H220819   0.549   4.100   5.991
 6933WAT      O20820   0.963   4.653   5.585
 6933WAT     H120821   0.901   4.699   5.528
 6933WAT     H220822   1.014   4.722   5.626
 6934WAT      O20823   1.301   3.987   5.999
 6934WAT     H120824   1.230   4.016   6.057
 6934WAT     H220825   1.337   4.068   5.963
 6935WAT      O20826   1.608   3.932   6.038
 6935WAT     H120827   1.513   3.935   6.052
 6935WAT     H220828   1.640   4.013   6.077
 6936WAT      O20829   0.661   3.562   5.868
 6936WAT     H120830   0.692   3.506   5.796
 6936WAT     H220831   0.568   3.575   5.850
 6937WAT      O20832   1.216   5.133   6.097
 6937WAT     H120833   1.217   5.093   6.010
 6937WAT     H220834   1.161   5.211   6.087
 6938WAT      O20835   1.346   4.806   5.606
 6938WAT     H120836   1.334   4.711   5.618
 6938WAT     H220837   1.345   4.842   5.695
 6939WAT      O20838   0.900   4.368   5.542
 6939WAT     H120839   0.807   4.362   5.565
 6939WAT     H220840   0.915   4.462   5.530
 6940WAT      O20841   0.898   3.995   5.241
 6940WAT     H120842   0.804   4.011   5.250
 6940WAT     H220843   0.930   4.067   5.187
 6941WAT      O20844   1.303   4.524   5.592
 6941WAT     H120845   1.241   4.491   5.527
 6941WAT     H220846   1.301   4.460   5.663
 6942WAT      O20847   0.460   4.421   5.820
 6942WAT     H120848   0.420   4.350   5.770
 6942WAT     H220849   0.469   4.386   5.909
 6943WAT      O20850   0.507   4.789   6.036
 6943WAT     H120851   0.477   4.729   5.968
 6943WAT     H220852   0.602   4.793   6.025
 6944WAT      O20853   1.120   4.448   5.293
 6944WAT     H120854   1.164   4.364   5.278
 6944WAT     H220855   1.192   4.512   5.301
 6945WAT      O20856   0.931   4.942   5.690
 6945WAT     H120857   0.975   5.016   5.648
 6945WAT     H220858   0.925   4.966   5.782
 6946WAT      O20859   1.479   3.574   5.124
 6946WAT     H120860   1.447   3.583   5.214
 6946WAT     H220861   1.555   3.631   5.119
 6947WAT      O20862   1.198   5.241   5.425
 6947WAT     H120863   1.182   5.212   5.515
 6947WAT     H220864   1.181   5.163   5.372
 6948WAT      O20865   0.446   5.219   5.603
 6948WAT     H120866   0.428   5.127   5.582
 6948WAT     H220867   0.360   5.255   5.627
 6949WAT      O20868   1.168   4.992   5.281
 6949WAT     H120869   1.099   4.992   5.215
 6949WAT     H220870   1.242   4.949   5.238
 6950WAT      O20871   1.125   5.154   5.689
 6950WAT     H120872   1.170   5.076   5.720
 6950WAT     H220873   1.159   5.225   5.743
 6951WAT      O20874   0.377   3.645   5.908
 6951WAT     H120875   0.333   3.723   5.875
 6951WAT     H220876   0.433   3.677   5.979
 6952WAT      O20877   0.689   3.607   5.396
 6952WAT     H120878   0.626   3.606   5.469
 6952WAT     H220879   0.680   3.520   5.357
 6953WAT      O20880   0.581   3.699   6.094
 6953WAT     H120881   0.610   3.790   6.086
 6953WAT     H220882   0.636   3.650   6.033
 6954WAT      O20883   0.356   4.157   5.681
 6954WAT     H120884   0.334   4.135   5.771
 6954WAT     H220885   0.278   4.200   5.646
 6955WAT      O20886   1.079   4.158   5.541
 6955WAT     H120887   1.019   4.230   5.522
 6955WAT     H220888   1.134   4.151   5.463
 6956WAT      O20889   0.940   4.021   5.744
 6956WAT     H120890   0.979   4.053   5.663
 6956WAT     H220891   0.976   3.933   5.755
 6957WAT      O20892   0.642   3.948   5.994
 6957WAT     H120893   0.642   3.904   5.909
 6957WAT     H220894   0.732   3.980   6.005
 6958WAT      O20895   0.648   4.048   5.293
 6958WAT     H120896   0.660   4.044   5.388
 6958WAT     H220897   0.610   4.134   5.277
 6959WAT      O20898   0.549   4.279   5.233
 6959WAT     H120899   0.493   4.234   5.170
 6959WAT     H220900   0.620   4.315   5.179
 6960WAT      O20901   0.304   4.679   5.460
 6960WAT     H120902   0.227   4.625   5.444
 6960WAT     H220903   0.377   4.627   5.426
 6961WAT      O20904   1.380   4.578   6.039
 6961WAT     H120905   1.452   4.628   6.000
 6961WAT     H220906   1.360   4.510   5.975
 6962WAT      O20907   0.926   3.718   5.454
 6962WAT     H120908   0.845   3.668   5.446
 6962WAT     H220909   0.907   3.802   5.412
 6963WAT      O20910   1.197   4.155   5.283
 6963WAT     H120911   1.286   4.186   5.266
 6963WAT     H220912   1.194   4.067   5.244
 6964WAT      O20913   0.308   4.645   5.824
 6964WAT     H120914   0.360   4.565   5.818
 6964WAT     H220915   0.263   4.639   5.908
 6965WAT      O20916   0.797   4.772   5.351
 6965WAT     H120917   0.831   4.846   5.302
 6965WAT     H220918   0.714   4.803   5.387
 6966WAT      O20919   1.425   4.286   5.230
 6966WAT     H120920   1.416   4.329   5.145
 6966WAT     H220921   1.496   4.332   5.273
 6967WAT      O20922   1.527   4.971   5.503
 6967WAT     H120923   1.463   4.906   5.530
 6967WAT     H220924   1.489   5.012   5.425
 6968WAT      O20925   1.085   4.704   5.888
 6968WAT     H120926   1.121   4.644   5.822
 6968WAT     H220927   0.997   4.672   5.905
 6969WAT      O20928   0.694   4.780   5.628
 6969WAT     H120929   0.763   4.835   5.666
 6969WAT     H220930   0.615   4.835   5.632
 6970WAT      O20931   0.624   4.481   5.590
 6970WAT     H120932   0.670   4.562   5.612
 6970WAT     H220933   0.589   4.449   5.673
 6971WAT      O20934   1.366   4.860   5.157
 6971WAT     H120935   1.344   4.789   5.216
 6971WAT     H220936   1.327   4.836   5.073
 6972WAT      O20937   1.325   4.652   5.323
 6972WAT     H120938   1.296   4.698   5.402
 6972WAT     H220939   1.404   4.606   5.350
 6973WAT      O20940   0.546   5.001   5.316
 6973WAT     H120941   0.545   5.075   5.254
 6973WAT     H220942   0.454   4.977   5.325
 6974WAT      O20943   1.400   3.836   5.439
 6974WAT     H120944   1.337   3.846   5.367
 6974WAT     H220945   1.351   3.858   5.518
 6975WAT      O20946   0.845   5.008   5.182
 6975WAT     H120947   0.855   4.987   5.089
 6975WAT     H220948   0.755   4.982   5.203
 6976WAT      O20949   0.597   4.064   5.580
 6976WAT     H120950   0.526   4.110   5.624
 6976WAT     H220951   0.626   3.998   5.644
 6977WAT      O20952   1.000   3.736   5.724
 6977WAT     H120953   0.988   3.738   5.629
 6977WAT     H220954   1.095   3.741   5.736
 6978WAT      O20955   0.709   5.260   5.652
 6978WAT     H120956   0.734   5.256   5.559
 6978WAT     H220957   0.614   5.247   5.651
 6979WAT      O20958   0.417   3.894   5.318
 6979WAT     H120959   0.502   3.938   5.311
 6979WAT     H220960   0.381   3.926   5.401
 6980WAT      O20961   1.310   4.352   5.809
 6980WAT     H120962   1.215   4.353   5.827
 6980WAT     H220963   1.341   4.273   5.854
 6981WAT      O20964   0.307   4.520   5.165
 6981WAT     H120965   0.384   4.509   5.221
 6981WAT     H220966   0.315   4.450   5.100
 6982WAT      O20967   0.177   4.263   5.234
 6982WAT     H120968   0.185   4.168   5.245
 6982WAT     H220969   0.266   4.296   5.244
 6983WAT      O20970   1.510   5.069   5.977
 6983WAT     H120971   1.522   5.151   6.024
 6983WAT     H220972   1.596   5.048   5.942
 6984WAT      O20973   0.257   5.278   5.944
 6984WAT     H120974   0.331   5.223   5.971
 6984WAT     H220975   0.295   5.364   5.930
 6985WAT      O20976   0.568   5.195   5.126
 6985WAT     H120977   0.647   5.224   5.081
 6985WAT     H220978   0.516   5.152   5.058
 6986WAT      O20979   1.473   5.118   5.268
 6986WAT     H120980   1.445   5.077   5.187
 6986WAT     H220981   1.453   5.211   5.256
 6987WAT      O20982   0.620   4.717   5.113
 6987WAT     H120983   0.609   4.656   5.185
 6987WAT     H220984   0.603   4.665   5.034
 6988WAT      O20985   0.944   4.623   5.173
 6988WAT     H120986   0.889   4.668   5.237
 6988WAT     H220987   1.006   4.573   5.225
 6989WAT      O20988   0.511   4.519   5.363
 6989WAT     H120989   0.553   4.503   5.447
 6989WAT     H220990   0.523   4.438   5.313
 6990WAT      O20991   0.762   4.422   5.087
 6990WAT     H120992   0.814   4.350   5.051
 6990WAT     H220993   0.827   4.486   5.117
 6991WAT      O20994   0.400   4.127   5.057
 6991WAT     H120995   0.380   4.040   5.093
 6991WAT     H220996   0.383   4.118   4.963
 6992WAT      O20997   1.148   3.608   5.310
 6992WAT     H120998   1.176   3.523   5.346
 6992WAT     H220999   1.071   3.631   5.361
 6993WAT      O21000   0.280   3.837   5.056
 6993WAT     H121001   0.310   3.837   4.965
 6993WAT     H221002   0.354   3.802   5.106
 6994WAT      O21003   0.602   3.731   5.155
 6994WAT     H121004   0.567   3.663   5.097
 6994WAT     H221005   0.622   3.685   5.236
 6995WAT      O21006   0.818   5.230   5.316
 6995WAT     H121007   0.908   5.264   5.319
 6995WAT     H221008   0.821   5.158   5.254
 6996WAT      O21009   0.182   4.767   5.139
 6996WAT     H121010   0.226   4.821   5.205
 6996WAT     H221011   0.231   4.685   5.140
 6997WAT      O21012   0.363   4.879   5.650
 6997WAT     H121013   0.333   4.867   5.741
 6997WAT     H221014   0.353   4.793   5.610
 6998WAT      O21015   1.640   4.857   5.121
 6998WAT     H121016   1.557   4.864   5.168
 6998WAT     H221017   1.658   4.946   5.090
 6999WAT      O21018   1.586   4.532   5.371
 6999WAT     H121019   1.662   4.589   5.382
 6999WAT     H221020   1.587   4.475   5.448
 7000WAT      O21021   1.686   4.617   5.856
 7000WAT     H121022   1.724   4.539   5.815
 7000WAT     H221023   1.750   4.686   5.838
 7001WAT      O21024   1.591   4.561   5.087
 7001WAT     H121025   1.619   4.652   5.074
 7001WAT     H221026   1.572   4.555   5.180
 7002WAT      O21027   1.231   3.863   5.216
 7002WAT     H121028   1.273   3.845   5.132
 7002WAT     H221029   1.200   3.778   5.247
 7003WAT      O21030   1.581   4.355   5.586
 7003WAT     H121031   1.543   4.278   5.543
 7003WAT     H221032   1.508   4.393   5.635
 7004WAT      O21033   1.508   4.177   5.916
 7004WAT     H121034   1.561   4.128   5.853
 7004WAT     H221035   1.567   4.191   5.991
 7005WAT      O21036   1.457   4.103   5.510
 7005WAT     H121037   1.507   4.080   5.589
 7005WAT     H221038   1.437   4.019   5.468
 7006WAT      O21039   1.600   3.966   5.763
 7006WAT     H121040   1.589   3.951   5.857
 7006WAT     H221041   1.676   3.914   5.739
 7007WAT      O21042   1.689   3.750   5.088
 7007WAT     H121043   1.781   3.736   5.067
 7007WAT     H221044   1.687   3.757   5.183
 7008WAT      O21045   1.696   3.827   5.350
 7008WAT     H121046   1.617   3.820   5.403
 7008WAT     H221047   1.717   3.920   5.349
 7009WAT      O21048   1.391   5.231   5.749
 7009WAT     H121049   1.450   5.198   5.682
 7009WAT     H221050   1.416   5.183   5.829
 7010WAT      O21051   1.446   5.296   6.132
 7010WAT     H121052   1.400   5.371   6.095
 7010WAT     H221053   1.383   5.224   6.127
 7011WAT      O21054   0.489   5.126   6.050
 7011WAT     H121055   0.540   5.065   5.997
 7011WAT     H221056   0.554   5.177   6.099
 7012WAT      O21057   1.340   3.660   5.995
 7012WAT     H121058   1.384   3.654   5.910
 7012WAT     H221059   1.313   3.751   6.002
 7013WAT      O21060   1.526   3.623   5.796
 7013WAT     H121061   1.520   3.528   5.781
 7013WAT     H221062   1.604   3.634   5.851
 7014WAT      O21063   0.673   3.831   5.742
 7014WAT     H121064   0.592   3.794   5.708
 7014WAT     H221065   0.723   3.756   5.772
 7015WAT      O21066   1.123   3.498   5.866
 7015WAT     H121067   1.183   3.555   5.913
 7015WAT     H221068   1.049   3.554   5.843
 7016WAT      O21069   1.437   3.538   5.393
 7016WAT     H121070   1.457   3.628   5.420
 7016WAT     H221071   1.359   3.515   5.442
 7017WAT      O21072   0.256   3.673   5.297
 7017WAT     H121073   0.309   3.594   5.284
 7017WAT     H221074   0.319   3.740   5.320
 7018WAT      O21075   0.475   3.646   5.602
 7018WAT     H121076   0.412   3.576   5.619
 7018WAT     H221077   0.421   3.722   5.581
 7019WAT      O21078   1.593   5.262   5.569
 7019WAT     H121079   1.610   5.193   5.505
 7019WAT     H221080   1.523   5.314   5.530
 7020WAT      O21081   0.377   5.301   5.324
 7020WAT     H121082   0.450   5.272   5.270
 7020WAT     H221083   0.403   5.277   5.413
 7021WAT      O21084   0.293   4.913   5.325
 7021WAT     H121085   0.230   4.959   5.380
 7021WAT     H221086   0.305   4.828   5.368
 7022WAT      O21087   1.039   4.318   3.940
 7022WAT     H121088   1.031   4.226   3.913
 7022WAT     H221089   0.997   4.367   3.869
 7023WAT      O21090   0.852   4.495   4.128
 7023WAT     H121091   0.774   4.447   4.157
 7023WAT     H221092   0.917   4.427   4.111
 7024WAT      O21093   1.254   4.936   4.006
 7024WAT     H121094   1.208   4.859   4.039
 7024WAT     H221095   1.335   4.939   4.057
 7025WAT      O21096   0.252   4.930   4.235
 7025WAT     H121097   0.282   4.841   4.217
 7025WAT     H221098   0.326   4.986   4.213
 7026WAT      O21099   0.877   5.165   3.968
 7026WAT     H121100   0.815   5.210   3.911
 7026WAT     H221101   0.962   5.180   3.928
 7027WAT      O21102   0.796   4.763   4.129
 7027WAT     H121103   0.789   4.669   4.113
 7027WAT     H221104   0.872   4.772   4.186
 7028WAT      O21105   0.899   4.044   4.151
 7028WAT     H121106   0.937   3.956   4.140
 7028WAT     H221107   0.889   4.077   4.062
 7029WAT      O21108   0.312   3.881   3.698
 7029WAT     H121109   0.323   3.971   3.728
 7029WAT     H221110   0.221   3.876   3.669
 7030WAT      O21111   1.277   3.793   3.845
 7030WAT     H121112   1.359   3.744   3.849
 7030WAT     H221113   1.281   3.852   3.920
 7031WAT      O21114   0.496   4.178   4.131
 7031WAT     H121115   0.547   4.228   4.195
 7031WAT     H221116   0.549   4.100   4.113
 7032WAT      O21117   1.706   3.995   4.501
 7032WAT     H121118   1.636   4.034   4.449
 7032WAT     H221119   1.733   4.064   4.561
 7033WAT      O21120   0.324   3.642   4.557
 7033WAT     H121121   0.325   3.693   4.477
 7033WAT     H221122   0.242   3.594   4.555
 7034WAT      O21123   0.963   4.653   3.707
 7034WAT     H121124   0.901   4.699   3.651
 7034WAT     H221125   1.014   4.722   3.749
 7035WAT      O21126   0.449   4.606   4.375
 7035WAT     H121127   0.416   4.668   4.439
 7035WAT     H221128   0.467   4.658   4.297
 7036WAT      O21129   1.301   3.987   4.122
 7036WAT     H121130   1.230   4.016   4.180
 7036WAT     H221131   1.337   4.068   4.086
 7037WAT      O21132   0.293   3.813   4.358
 7037WAT     H121133   0.327   3.897   4.329
 7037WAT     H221134   0.199   3.828   4.370
 7038WAT      O21135   0.371   4.803   4.557
 7038WAT     H121136   0.432   4.870   4.529
 7038WAT     H221137   0.285   4.843   4.548
 7039WAT      O21138   1.462   4.949   4.348
 7039WAT     H121139   1.394   5.016   4.347
 7039WAT     H221140   1.516   4.969   4.272
 7040WAT      O21141   1.608   3.932   4.161
 7040WAT     H121142   1.513   3.935   4.174
 7040WAT     H221143   1.640   4.013   4.200
 7041WAT      O21144   0.661   3.562   3.991
 7041WAT     H121145   0.692   3.506   3.919
 7041WAT     H221146   0.568   3.575   3.972
 7042WAT      O21147   1.216   5.133   4.220
 7042WAT     H121148   1.217   5.093   4.133
 7042WAT     H221149   1.161   5.211   4.209
 7043WAT      O21150   1.346   4.806   3.729
 7043WAT     H121151   1.334   4.711   3.741
 7043WAT     H221152   1.345   4.842   3.817
 7044WAT      O21153   1.156   4.624   4.352
 7044WAT     H121154   1.198   4.602   4.269
 7044WAT     H221155   1.228   4.649   4.410
 7045WAT      O21156   0.900   4.368   3.664
 7045WAT     H121157   0.807   4.362   3.687
 7045WAT     H221158   0.915   4.462   3.653
 7046WAT      O21159   0.898   3.995   3.364
 7046WAT     H121160   0.804   4.011   3.372
 7046WAT     H221161   0.930   4.067   3.309
 7047WAT      O21162   1.551   4.464   4.362
 7047WAT     H121163   1.468   4.470   4.314
 7047WAT     H221164   1.610   4.522   4.315
 7048WAT      O21165   1.303   4.524   3.715
 7048WAT     H121166   1.241   4.491   3.650
 7048WAT     H221167   1.301   4.460   3.785
 7049WAT      O21168   1.247   4.142   4.456
 7049WAT     H121169   1.206   4.225   4.482
 7049WAT     H221170   1.174   4.084   4.437
 7050WAT      O21171   0.460   4.421   3.942
 7050WAT     H121172   0.420   4.350   3.893
 7050WAT     H221173   0.469   4.386   4.031
 7051WAT      O21174   0.507   4.789   4.159
 7051WAT     H121175   0.477   4.729   4.091
 7051WAT     H221176   0.602   4.793   4.148
 7052WAT      O21177   0.332   4.098   4.320
 7052WAT     H121178   0.387   4.109   4.243
 7052WAT     H221179   0.383   4.136   4.392
 7053WAT      O21180   1.316   5.147   4.525
 7053WAT     H121181   1.268   5.228   4.506
 7053WAT     H221182   1.248   5.082   4.540
 7054WAT      O21183   0.416   4.763   4.824
 7054WAT     H121184   0.327   4.786   4.849
 7054WAT     H221185   0.419   4.776   4.729
 7055WAT      O21186   1.120   4.448   3.415
 7055WAT     H121187   1.164   4.364   3.401
 7055WAT     H221188   1.192   4.512   3.424
 7056WAT      O21189   0.299   4.450   4.681
 7056WAT     H121190   0.285   4.538   4.718
 7056WAT     H221191   0.211   4.416   4.667
 7057WAT      O21192   0.931   4.942   3.812
 7057WAT     H121193   0.975   5.016   3.771
 7057WAT     H221194   0.925   4.966   3.904
 7058WAT      O21195   0.479   5.045   4.902
 7058WAT     H121196   0.476   5.085   4.816
 7058WAT     H221197   0.462   4.952   4.886
 7059WAT      O21198   1.479   3.574   3.247
 7059WAT     H121199   1.447   3.583   3.337
 7059WAT     H221200   1.555   3.631   3.242
 7060WAT      O21201   1.674   5.123   5.032
 7060WAT     H121202   1.722   5.171   5.100
 7060WAT     H221203   1.736   5.116   4.959
 7061WAT      O21204   1.614   4.842   4.748
 7061WAT     H121205   1.627   4.818   4.656
 7061WAT     H221206   1.618   4.759   4.795
 7062WAT      O21207   1.000   5.212   4.605
 7062WAT     H121208   1.052   5.203   4.685
 7062WAT     H221209   0.916   5.247   4.634
 7063WAT      O21210   1.198   5.241   3.548
 7063WAT     H121211   1.182   5.212   3.638
 7063WAT     H221212   1.181   5.163   3.494
 7064WAT      O21213   0.446   5.219   3.725
 7064WAT     H121214   0.428   5.127   3.704
 7064WAT     H221215   0.360   5.255   3.749
 7065WAT      O21216   1.168   4.992   3.404
 7065WAT     H121217   1.099   4.992   3.338
 7065WAT     H221218   1.242   4.949   3.361
 7066WAT      O21219   1.125   5.154   3.811
 7066WAT     H121220   1.170   5.076   3.843
 7066WAT     H221221   1.159   5.225   3.866
 7067WAT      O21222   1.600   4.047   4.844
 7067WAT     H121223   1.538   4.098   4.792
 7067WAT     H221224   1.567   3.957   4.839
 7068WAT      O21225   0.377   3.645   4.031
 7068WAT     H121226   0.333   3.723   3.998
 7068WAT     H221227   0.433   3.677   4.101
 7069WAT      O21228   0.806   3.931   4.591
 7069WAT     H121229   0.759   3.952   4.672
 7069WAT     H221230   0.765   3.850   4.561
 7070WAT      O21231   1.306   4.053   4.704
 7070WAT     H121232   1.221   4.023   4.736
 7070WAT     H221233   1.290   4.078   4.613
 7071WAT      O21234   1.015   4.203   4.914
 7071WAT     H121235   1.048   4.120   4.880
 7071WAT     H221236   1.094   4.256   4.929
 7072WAT      O21237   0.689   3.607   3.519
 7072WAT     H121238   0.626   3.606   3.591
 7072WAT     H221239   0.680   3.520   3.479
 7073WAT      O21240   0.581   3.699   4.217
 7073WAT     H121241   0.610   3.790   4.209
 7073WAT     H221242   0.636   3.650   4.155
 7074WAT      O21243   0.356   4.157   3.804
 7074WAT     H121244   0.334   4.135   3.894
 7074WAT     H221245   0.278   4.200   3.769
 7075WAT      O21246   1.079   4.158   3.663
 7075WAT     H121247   1.019   4.230   3.645
 7075WAT     H221248   1.134   4.151   3.585
 7076WAT      O21249   0.600   4.247   4.870
 7076WAT     H121250   0.591   4.153   4.855
 7076WAT     H221251   0.684   4.269   4.831
 7077WAT      O21252   0.940   4.021   3.866
 7077WAT     H121253   0.979   4.053   3.785
 7077WAT     H221254   0.976   3.933   3.878
 7078WAT      O21255   0.771   3.896   4.992
 7078WAT     H121256   0.702   3.877   5.056
 7078WAT     H221257   0.845   3.925   5.046
 7079WAT      O21258   0.998   4.280   4.276
 7079WAT     H121259   0.925   4.331   4.311
 7079WAT     H221260   0.959   4.199   4.246
 7080WAT      O21261   0.642   3.948   4.116
 7080WAT     H121262   0.642   3.904   4.032
 7080WAT     H221263   0.732   3.980   4.127
 7081WAT      O21264   0.648   4.048   3.416
 7081WAT     H121265   0.660   4.044   3.510
 7081WAT     H221266   0.610   4.134   3.400
 7082WAT      O21267   1.045   3.826   4.217
 7082WAT     H121268   1.046   3.871   4.302
 7082WAT     H221269   1.020   3.736   4.239
 7083WAT      O21270   0.549   4.279   3.355
 7083WAT     H121271   0.493   4.234   3.293
 7083WAT     H221272   0.620   4.315   3.302
 7084WAT      O21273   1.387   3.567   4.801
 7084WAT     H121274   1.420   3.494   4.854
 7084WAT     H221275   1.391   3.535   4.711
 7085WAT      O21276   0.672   4.354   4.291
 7085WAT     H121277   0.709   4.306   4.366
 7085WAT     H221278   0.653   4.441   4.325
 7086WAT      O21279   0.451   4.258   4.523
 7086WAT     H121280   0.421   4.346   4.545
 7086WAT     H221281   0.547   4.264   4.527
 7087WAT      O21282   0.304   4.679   3.583
 7087WAT     H121283   0.227   4.625   3.567
 7087WAT     H221284   0.377   4.627   3.549
 7088WAT      O21285   1.380   4.578   4.162
 7088WAT     H121286   1.452   4.628   4.123
 7088WAT     H221287   1.360   4.510   4.097
 7089WAT      O21288   0.926   3.718   3.576
 7089WAT     H121289   0.845   3.668   3.569
 7089WAT     H221290   0.907   3.802   3.535
 7090WAT      O21291   0.918   4.585   4.751
 7090WAT     H121292   0.911   4.493   4.725
 7090WAT     H221293   0.855   4.595   4.822
 7091WAT      O21294   1.197   4.155   3.406
 7091WAT     H121295   1.286   4.186   3.388
 7091WAT     H221296   1.194   4.067   3.367
 7092WAT      O21297   0.308   4.645   3.946
 7092WAT     H121298   0.360   4.565   3.941
 7092WAT     H221299   0.263   4.639   4.031
 7093WAT      O21300   0.797   4.772   3.474
 7093WAT     H121301   0.831   4.846   3.424
 7093WAT     H221302   0.714   4.803   3.510
 7094WAT      O21303   0.377   4.388   4.926
 7094WAT     H121304   0.347   4.402   4.836
 7094WAT     H221305   0.454   4.332   4.917
 7095WAT      O21306   0.911   4.867   4.726
 7095WAT     H121307   0.913   4.774   4.704
 7095WAT     H221308   0.840   4.876   4.790
 7096WAT      O21309   1.425   4.286   3.353
 7096WAT     H121310   1.416   4.329   3.268
 7096WAT     H221311   1.496   4.332   3.396
 7097WAT      O21312   1.532   4.532   4.660
 7097WAT     H121313   1.460   4.591   4.641
 7097WAT     H221314   1.585   4.531   4.580
 7098WAT      O21315   1.527   4.971   3.625
 7098WAT     H121316   1.463   4.906   3.653
 7098WAT     H221317   1.489   5.012   3.548
 7099WAT      O21318   1.085   4.704   4.010
 7099WAT     H121319   1.121   4.644   3.944
 7099WAT     H221320   0.997   4.672   4.027
 7100WAT      O21321   0.694   4.780   3.751
 7100WAT     H121322   0.763   4.835   3.789
 7100WAT     H221323   0.615   4.835   3.754
 7101WAT      O21324   0.624   4.481   3.712
 7101WAT     H121325   0.670   4.562   3.735
 7101WAT     H221326   0.589   4.449   3.795
 7102WAT      O21327   0.855   5.032   4.435
 7102WAT     H121328   0.919   5.052   4.503
 7102WAT     H221329   0.891   4.956   4.390
 7103WAT      O21330   0.982   4.832   4.307
 7103WAT     H121331   1.046   4.762   4.318
 7103WAT     H221332   1.034   4.910   4.289
 7104WAT      O21333   1.366   4.860   3.279
 7104WAT     H121334   1.344   4.789   3.338
 7104WAT     H221335   1.327   4.836   3.195
 7105WAT      O21336   1.159   4.912   4.627
 7105WAT     H121337   1.193   4.971   4.695
 7105WAT     H221338   1.067   4.899   4.650
 7106WAT      O21339   1.325   4.652   3.445
 7106WAT     H121340   1.296   4.698   3.524
 7106WAT     H221341   1.404   4.606   3.472
 7107WAT      O21342   0.742   4.917   4.944
 7107WAT     H121343   0.710   4.845   4.999
 7107WAT     H221344   0.675   4.984   4.951
 7108WAT      O21345   0.546   5.001   3.438
 7108WAT     H121346   0.545   5.075   3.377
 7108WAT     H221347   0.454   4.977   3.448
 7109WAT      O21348   1.064   3.940   4.480
 7109WAT     H121349   1.100   3.858   4.513
 7109WAT     H221350   0.978   3.946   4.522
 7110WAT      O21351   1.400   3.836   3.561
 7110WAT     H121352   1.337   3.846   3.490
 7110WAT     H221353   1.351   3.858   3.640
 7111WAT      O21354   0.845   5.008   3.305
 7111WAT     H121355   0.855   4.987   3.212
 7111WAT     H221356   0.755   4.982   3.325
 7112WAT      O21357   0.597   4.064   3.703
 7112WAT     H121358   0.526   4.110   3.747
 7112WAT     H221359   0.626   3.998   3.766
 7113WAT      O21360   0.760   4.205   4.503
 7113WAT     H121361   0.810   4.253   4.569
 7113WAT     H221362   0.774   4.113   4.524
 7114WAT      O21363   1.000   3.736   3.847
 7114WAT     H121364   0.988   3.738   3.752
 7114WAT     H221365   1.095   3.741   3.859
 7115WAT      O21366   0.709   5.260   3.774
 7115WAT     H121367   0.734   5.256   3.682
 7115WAT     H221368   0.614   5.247   3.773
 7116WAT      O21369   0.417   3.894   3.440
 7116WAT     H121370   0.502   3.938   3.434
 7116WAT     H221371   0.381   3.926   3.523
 7117WAT      O21372   1.480   3.827   4.587
 7117WAT     H121373   1.430   3.901   4.621
 7117WAT     H221374   1.562   3.866   4.555
 7118WAT      O21375   1.310   4.352   3.932
 7118WAT     H121376   1.215   4.353   3.949
 7118WAT     H221377   1.341   4.273   3.976
 7119WAT      O21378   0.307   4.520   3.288
 7119WAT     H121379   0.384   4.509   3.344
 7119WAT     H221380   0.315   4.450   3.223
 7120WAT      O21381   0.177   4.263   3.356
 7120WAT     H121382   0.185   4.168   3.367
 7120WAT     H221383   0.266   4.296   3.367
 7121WAT      O21384   1.510   5.069   4.099
 7121WAT     H121385   1.522   5.151   4.146
 7121WAT     H221386   1.596   5.048   4.064
 7122WAT      O21387   0.257   5.278   4.066
 7122WAT     H121388   0.331   5.223   4.093
 7122WAT     H221389   0.295   5.364   4.052
 7123WAT      O21390   0.568   5.195   3.249
 7123WAT     H121391   0.647   5.224   3.203
 7123WAT     H221392   0.516   5.152   3.181
 7124WAT      O21393   1.041   4.807   4.980
 7124WAT     H121394   0.981   4.809   4.906
 7124WAT     H221395   1.011   4.734   5.034
 7125WAT      O21396   1.184   5.180   4.841
 7125WAT     H121397   1.279   5.172   4.836
 7125WAT     H221398   1.169   5.246   4.908
 7126WAT      O21399   1.473   5.118   3.391
 7126WAT     H121400   1.445   5.077   3.310
 7126WAT     H221401   1.453   5.211   3.379
 7127WAT      O21402   0.620   4.717   3.235
 7127WAT     H121403   0.609   4.656   3.308
 7127WAT     H221404   0.603   4.665   3.157
 7128WAT      O21405   0.635   4.586   4.833
 7128WAT     H121406   0.558   4.643   4.825
 7128WAT     H221407   0.653   4.557   4.744
 7129WAT      O21408   0.944   4.623   3.296
 7129WAT     H121409   0.889   4.668   3.360
 7129WAT     H221410   1.006   4.573   3.348
 7130WAT      O21411   1.349   4.759   4.889
 7130WAT     H121412   1.423   4.793   4.838
 7130WAT     H221413   1.273   4.776   4.833
 7131WAT      O21414   0.511   4.519   3.485
 7131WAT     H121415   0.553   4.503   3.569
 7131WAT     H221416   0.523   4.438   3.436
 7132WAT      O21417   0.327   4.117   4.766
 7132WAT     H121418   0.274   4.068   4.703
 7132WAT     H221419   0.394   4.160   4.712
 7133WAT      O21420   0.762   4.422   3.210
 7133WAT     H121421   0.814   4.350   3.173
 7133WAT     H221422   0.827   4.486   3.240
 7134WAT      O21423   1.217   4.564   4.742
 7134WAT     H121424   1.258   4.579   4.827
 7134WAT     H221425   1.123   4.577   4.759
 7135WAT      O21426   1.264   4.298   4.943
 7135WAT     H121427   1.322   4.222   4.934
 7135WAT     H221428   1.281   4.351   4.865
 7136WAT      O21429   0.376   3.814   4.774
 7136WAT     H121430   0.366   3.752   4.701
 7136WAT     H221431   0.318   3.887   4.751
 7137WAT      O21432   0.652   3.670   4.477
 7137WAT     H121433   0.607   3.672   4.393
 7137WAT     H221434   0.589   3.630   4.537
 7138WAT      O21435   0.693   4.559   4.539
 7138WAT     H121436   0.735   4.644   4.522
 7138WAT     H221437   0.601   4.573   4.516
 7139WAT      O21438   0.926   4.332   4.678
 7139WAT     H121439   0.938   4.273   4.752
 7139WAT     H221440   1.012   4.336   4.636
 7140WAT      O21441   1.160   4.388   4.535
 7140WAT     H121442   1.108   4.440   4.475
 7140WAT     H221443   1.195   4.451   4.598
 7141WAT      O21444   0.400   4.127   3.180
 7141WAT     H121445   0.380   4.040   3.216
 7141WAT     H221446   0.383   4.118   3.086
 7142WAT      O21447   0.478   5.190   4.651
 7142WAT     H121448   0.424   5.262   4.619
 7142WAT     H221449   0.503   5.142   4.572
 7143WAT      O21450   0.603   3.987   4.803
 7143WAT     H121451   0.662   3.956   4.872
 7143WAT     H221452   0.521   3.939   4.819
 7144WAT      O21453   1.085   3.948   4.827
 7144WAT     H121454   1.016   3.882   4.820
 7144WAT     H221455   1.157   3.904   4.871
 7145WAT      O21456   1.148   3.608   3.433
 7145WAT     H121457   1.176   3.523   3.468
 7145WAT     H221458   1.071   3.631   3.484
 7146WAT      O21459   0.280   3.837   3.179
 7146WAT     H121460   0.310   3.837   3.088
 7146WAT     H221461   0.354   3.802   3.228
 7147WAT      O21462   0.763   5.313   4.677
 7147WAT     H121463   0.756   5.404   4.707
 7147WAT     H221464   0.673   5.281   4.674
 7148WAT      O21465   0.602   3.731   3.277
 7148WAT     H121466   0.567   3.663   3.219
 7148WAT     H221467   0.622   3.685   3.359
 7149WAT      O21468   0.818   5.230   3.439
 7149WAT     H121469   0.908   5.264   3.441
 7149WAT     H221470   0.821   5.158   3.376
 7150WAT      O21471   0.182   4.767   3.262
 7150WAT     H121472   0.226   4.821   3.327
 7150WAT     H221473   0.231   4.685   3.263
 7151WAT      O21474   0.363   4.879   3.773
 7151WAT     H121475   0.333   4.867   3.863
 7151WAT     H221476   0.353   4.793   3.732
 7152WAT      O21477   1.516   5.083   4.710
 7152WAT     H121478   1.456   5.089   4.635
 7152WAT     H221479   1.529   4.989   4.723
 7153WAT      O21480   1.640   4.857   3.243
 7153WAT     H121481   1.557   4.864   3.290
 7153WAT     H221482   1.658   4.946   3.213
 7154WAT      O21483   1.586   4.532   3.494
 7154WAT     H121484   1.662   4.589   3.504
 7154WAT     H221485   1.587   4.475   3.571
 7155WAT      O21486   1.686   4.617   3.978
 7155WAT     H121487   1.724   4.539   3.937
 7155WAT     H221488   1.750   4.686   3.960
 7156WAT      O21489   1.385   4.755   4.519
 7156WAT     H121490   1.303   4.798   4.546
 7156WAT     H221491   1.426   4.817   4.458
 7157WAT      O21492   1.591   4.561   3.209
 7157WAT     H121493   1.619   4.652   3.197
 7157WAT     H221494   1.572   4.555   3.303
 7158WAT      O21495   1.231   3.863   3.339
 7158WAT     H121496   1.273   3.845   3.255
 7158WAT     H221497   1.200   3.778   3.370
 7159WAT      O21498   1.581   4.355   3.709
 7159WAT     H121499   1.543   4.278   3.665
 7159WAT     H221500   1.508   4.393   3.757
 7160WAT      O21501   1.520   4.269   4.672
 7160WAT     H121502   1.497   4.246   4.582
 7160WAT     H221503   1.546   4.361   4.668
 7161WAT      O21504   1.364   3.792   4.950
 7161WAT     H121505   1.451   3.793   4.988
 7161WAT     H221506   1.365   3.718   4.889
 7162WAT      O21507   1.508   4.177   4.039
 7162WAT     H121508   1.561   4.128   3.976
 7162WAT     H221509   1.567   4.191   4.113
 7163WAT      O21510   1.526   4.186   4.391
 7163WAT     H121511   1.431   4.182   4.402
 7163WAT     H221512   1.544   4.277   4.367
 7164WAT      O21513   1.457   4.103   3.633
 7164WAT     H121514   1.507   4.080   3.711
 7164WAT     H221515   1.437   4.019   3.591
 7165WAT      O21516   1.600   3.966   3.886
 7165WAT     H121517   1.589   3.951   3.980
 7165WAT     H221518   1.676   3.914   3.862
 7166WAT      O21519   1.435   3.560   4.532
 7166WAT     H121520   1.498   3.622   4.568
 7166WAT     H221521   1.449   3.564   4.437
 7167WAT      O21522   1.689   3.750   3.210
 7167WAT     H121523   1.781   3.736   3.189
 7167WAT     H221524   1.687   3.757   3.305
 7168WAT      O21525   1.696   3.827   3.473
 7168WAT     H121526   1.617   3.820   3.526
 7168WAT     H221527   1.717   3.920   3.472
 7169WAT      O21528   1.391   5.231   3.872
 7169WAT     H121529   1.450   5.198   3.804
 7169WAT     H221530   1.416   5.183   3.951
 7170WAT      O21531   0.181   4.874   4.887
 7170WAT     H121532   0.177   4.837   4.975
 7170WAT     H221533   0.194   4.968   4.901
 7171WAT      O21534   0.551   5.029   4.447
 7171WAT     H121535   0.527   5.056   4.358
 7171WAT     H221536   0.645   5.046   4.453
 7172WAT      O21537   0.772   3.676   4.823
 7172WAT     H121538   0.766   3.735   4.898
 7172WAT     H221539   0.866   3.665   4.808
 7173WAT      O21540   1.036   3.641   4.787
 7173WAT     H121541   1.097   3.673   4.720
 7173WAT     H221542   1.090   3.593   4.849
 7174WAT      O21543   1.677   5.231   4.527
 7174WAT     H121544   1.628   5.271   4.455
 7174WAT     H221545   1.616   5.169   4.567
 7175WAT      O21546   1.110   3.498   4.419
 7175WAT     H121547   1.022   3.531   4.399
 7175WAT     H221548   1.099   3.450   4.502
 7176WAT      O21549   1.200   3.718   4.558
 7176WAT     H121550   1.167   3.637   4.520
 7176WAT     H221551   1.295   3.714   4.545
 7177WAT      O21552   1.446   5.296   4.255
 7177WAT     H121553   1.400   5.371   4.218
 7177WAT     H221554   1.383   5.224   4.249
 7178WAT      O21555   0.489   5.126   4.173
 7178WAT     H121556   0.540   5.065   4.120
 7178WAT     H221557   0.554   5.177   4.222
 7179WAT      O21558   0.763   5.216   4.255
 7179WAT     H121559   0.791   5.190   4.168
 7179WAT     H221560   0.814   5.160   4.314
 7180WAT      O21561   0.884   3.589   4.313
 7180WAT     H121562   0.806   3.637   4.341
 7180WAT     H221563   0.855   3.499   4.302
 7181WAT      O21564   1.340   3.660   4.118
 7181WAT     H121565   1.384   3.654   4.033
 7181WAT     H221566   1.313   3.751   4.125
 7182WAT      O21567   1.526   3.623   3.919
 7182WAT     H121568   1.520   3.528   3.904
 7182WAT     H221569   1.604   3.634   3.973
 7183WAT      O21570   0.673   3.831   3.864
 7183WAT     H121571   0.592   3.794   3.830
 7183WAT     H221572   0.723   3.756   3.895
 7184WAT      O21573   1.123   3.498   3.988
 7184WAT     H121574   1.183   3.555   4.036
 7184WAT     H221575   1.049   3.554   3.966
 7185WAT      O21576   1.437   3.538   3.516
 7185WAT     H121577   1.457   3.628   3.542
 7185WAT     H221578   1.359   3.515   3.565
 7186WAT      O21579   0.256   3.673   3.419
 7186WAT     H121580   0.309   3.594   3.406
 7186WAT     H221581   0.319   3.740   3.443
 7187WAT      O21582   0.475   3.646   3.725
 7187WAT     H121583   0.412   3.576   3.741
 7187WAT     H221584   0.421   3.722   3.703
 7188WAT      O21585   0.769   5.308   4.992
 7188WAT     H121586   0.862   5.284   4.996
 7188WAT     H221587   0.768   5.390   4.944
 7189WAT      O21588   1.593   5.262   3.692
 7189WAT     H121589   1.610   5.193   3.627
 7189WAT     H221590   1.523   5.314   3.652
 7190WAT      O21591   0.488   3.574   4.968
 7190WAT     H121592   0.460   3.624   4.892
 7190WAT     H221593   0.526   3.494   4.932
 7191WAT      O21594   0.377   5.301   3.447
 7191WAT     H121595   0.450   5.272   3.392
 7191WAT     H221596   0.403   5.277   3.536
 7192WAT      O21597   0.293   4.913   3.447
 7192WAT     H121598   0.230   4.959   3.502
 7192WAT     H221599   0.305   4.828   3.491
 7193WAT      O21600   1.148   3.516   5.026
 7193WAT     H121601   1.137   3.548   5.116
 7193WAT     H221602   1.230   3.556   4.996
 7194WAT      O21603   1.426   5.230   4.974
 7194WAT     H121604   1.505   5.181   4.954
 7194WAT     H221605   1.455   5.298   5.035
 7195WAT      O21606   1.039   4.318   2.062
 7195WAT     H121607   1.031   4.226   2.035
 7195WAT     H221608   0.997   4.367   1.992
 7196WAT      O21609   0.852   4.495   2.251
 7196WAT     H121610   0.774   4.447   2.280
 7196WAT     H221611   0.917   4.427   2.233
 7197WAT      O21612   1.254   4.936   2.129
 7197WAT     H121613   1.208   4.859   2.161
 7197WAT     H221614   1.335   4.939   2.179
 7198WAT      O21615   0.252   4.930   2.358
 7198WAT     H121616   0.282   4.841   2.340
 7198WAT     H221617   0.326   4.986   2.335
 7199WAT      O21618   0.877   5.165   2.091
 7199WAT     H121619   0.815   5.210   2.034
 7199WAT     H221620   0.962   5.180   2.050
 7200WAT      O21621   0.796   4.763   2.251
 7200WAT     H121622   0.789   4.669   2.235
 7200WAT     H221623   0.872   4.772   2.308
 7201WAT      O21624   0.899   4.044   2.274
 7201WAT     H121625   0.937   3.956   2.263
 7201WAT     H221626   0.889   4.077   2.185
 7202WAT      O21627   0.312   3.881   1.820
 7202WAT     H121628   0.323   3.971   1.851
 7202WAT     H221629   0.221   3.876   1.791
 7203WAT      O21630   1.277   3.793   1.967
 7203WAT     H121631   1.359   3.744   1.971
 7203WAT     H221632   1.281   3.852   2.043
 7204WAT      O21633   0.496   4.178   2.253
 7204WAT     H121634   0.547   4.228   2.317
 7204WAT     H221635   0.549   4.100   2.236
 7205WAT      O21636   1.706   3.995   2.624
 7205WAT     H121637   1.636   4.034   2.572
 7205WAT     H221638   1.733   4.064   2.684
 7206WAT      O21639   0.324   3.642   2.680
 7206WAT     H121640   0.325   3.693   2.599
 7206WAT     H221641   0.242   3.594   2.678
 7207WAT      O21642   0.963   4.653   1.830
 7207WAT     H121643   0.901   4.699   1.774
 7207WAT     H221644   1.014   4.722   1.872
 7208WAT      O21645   0.449   4.606   2.498
 7208WAT     H121646   0.416   4.668   2.562
 7208WAT     H221647   0.467   4.658   2.420
 7209WAT      O21648   1.301   3.987   2.245
 7209WAT     H121649   1.230   4.016   2.303
 7209WAT     H221650   1.337   4.068   2.208
 7210WAT      O21651   0.293   3.813   2.481
 7210WAT     H121652   0.327   3.897   2.451
 7210WAT     H221653   0.199   3.828   2.492
 7211WAT      O21654   0.371   4.803   2.679
 7211WAT     H121655   0.432   4.870   2.651
 7211WAT     H221656   0.285   4.843   2.670
 7212WAT      O21657   1.462   4.949   2.471
 7212WAT     H121658   1.394   5.016   2.470
 7212WAT     H221659   1.516   4.969   2.394
 7213WAT      O21660   1.608   3.932   2.284
 7213WAT     H121661   1.513   3.935   2.297
 7213WAT     H221662   1.640   4.013   2.322
 7214WAT      O21663   0.661   3.562   2.113
 7214WAT     H121664   0.692   3.506   2.042
 7214WAT     H221665   0.568   3.575   2.095
 7215WAT      O21666   1.216   5.133   2.342
 7215WAT     H121667   1.217   5.093   2.255
 7215WAT     H221668   1.161   5.211   2.332
 7216WAT      O21669   1.346   4.806   1.851
 7216WAT     H121670   1.334   4.711   1.864
 7216WAT     H221671   1.345   4.842   1.940
 7217WAT      O21672   1.156   4.624   2.475
 7217WAT     H121673   1.198   4.602   2.392
 7217WAT     H221674   1.228   4.649   2.532
 7218WAT      O21675   0.900   4.368   1.787
 7218WAT     H121676   0.807   4.362   1.810
 7218WAT     H221677   0.915   4.462   1.775
 7219WAT      O21678   0.898   3.995   1.486
 7219WAT     H121679   0.804   4.011   1.495
 7219WAT     H221680   0.930   4.067   1.432
 7220WAT      O21681   1.551   4.464   2.484
 7220WAT     H121682   1.468   4.470   2.437
 7220WAT     H221683   1.610   4.522   2.437
 7221WAT      O21684   1.303   4.524   1.837
 7221WAT     H121685   1.241   4.491   1.772
 7221WAT     H221686   1.301   4.460   1.908
 7222WAT      O21687   1.247   4.142   2.579
 7222WAT     H121688   1.206   4.225   2.604
 7222WAT     H221689   1.174   4.084   2.560
 7223WAT      O21690   0.460   4.421   2.065
 7223WAT     H121691   0.420   4.350   2.015
 7223WAT     H221692   0.469   4.386   2.154
 7224WAT      O21693   0.507   4.789   2.281
 7224WAT     H121694   0.477   4.729   2.213
 7224WAT     H221695   0.602   4.793   2.270
 7225WAT      O21696   0.332   4.098   2.443
 7225WAT     H121697   0.387   4.109   2.365
 7225WAT     H221698   0.383   4.136   2.514
 7226WAT      O21699   1.316   5.147   2.648
 7226WAT     H121700   1.268   5.228   2.628
 7226WAT     H221701   1.248   5.082   2.663
 7227WAT      O21702   0.416   4.763   2.946
 7227WAT     H121703   0.327   4.786   2.971
 7227WAT     H221704   0.419   4.776   2.852
 7228WAT      O21705   1.120   4.448   1.538
 7228WAT     H121706   1.164   4.364   1.523
 7228WAT     H221707   1.192   4.512   1.546
 7229WAT      O21708   0.299   4.450   2.804
 7229WAT     H121709   0.285   4.538   2.841
 7229WAT     H221710   0.211   4.416   2.789
 7230WAT      O21711   0.931   4.942   1.935
 7230WAT     H121712   0.975   5.016   1.893
 7230WAT     H221713   0.925   4.966   2.027
 7231WAT      O21714   0.479   5.045   3.025
 7231WAT     H121715   0.476   5.085   2.938
 7231WAT     H221716   0.462   4.952   3.009
 7232WAT      O21717   1.479   3.574   1.369
 7232WAT     H121718   1.447   3.583   1.459
 7232WAT     H221719   1.555   3.631   1.364
 7233WAT      O21720   1.674   5.123   3.154
 7233WAT     H121721   1.722   5.171   3.222
 7233WAT     H221722   1.736   5.116   3.082
 7234WAT      O21723   1.614   4.842   2.870
 7234WAT     H121724   1.627   4.818   2.779
 7234WAT     H221725   1.618   4.759   2.918
 7235WAT      O21726   1.000   5.212   2.727
 7235WAT     H121727   1.052   5.203   2.808
 7235WAT     H221728   0.916   5.247   2.757
 7236WAT      O21729   1.198   5.241   1.670
 7236WAT     H121730   1.182   5.212   1.760
 7236WAT     H221731   1.181   5.163   1.617
 7237WAT      O21732   0.446   5.219   1.848
 7237WAT     H121733   0.428   5.127   1.827
 7237WAT     H221734   0.360   5.255   1.872
 7238WAT      O21735   1.168   4.992   1.526
 7238WAT     H121736   1.099   4.992   1.460
 7238WAT     H221737   1.242   4.949   1.483
 7239WAT      O21738   1.125   5.154   1.934
 7239WAT     H121739   1.170   5.076   1.965
 7239WAT     H221740   1.159   5.225   1.988
 7240WAT      O21741   1.600   4.047   2.967
 7240WAT     H121742   1.538   4.098   2.914
 7240WAT     H221743   1.567   3.957   2.961
 7241WAT      O21744   0.377   3.645   2.153
 7241WAT     H121745   0.333   3.723   2.120
 7241WAT     H221746   0.433   3.677   2.224
 7242WAT      O21747   0.806   3.931   2.714
 7242WAT     H121748   0.759   3.952   2.795
 7242WAT     H221749   0.765   3.850   2.683
 7243WAT      O21750   1.306   4.053   2.827
 7243WAT     H121751   1.221   4.023   2.859
 7243WAT     H221752   1.290   4.078   2.735
 7244WAT      O21753   1.015   4.203   3.037
 7244WAT     H121754   1.048   4.120   3.003
 7244WAT     H221755   1.094   4.256   3.051
 7245WAT      O21756   0.689   3.607   1.641
 7245WAT     H121757   0.626   3.606   1.714
 7245WAT     H221758   0.680   3.520   1.602
 7246WAT      O21759   0.581   3.699   2.339
 7246WAT     H121760   0.610   3.790   2.331
 7246WAT     H221761   0.636   3.650   2.278
 7247WAT      O21762   0.356   4.157   1.926
 7247WAT     H121763   0.334   4.135   2.017
 7247WAT     H221764   0.278   4.200   1.892
 7248WAT      O21765   1.079   4.158   1.786
 7248WAT     H121766   1.019   4.230   1.768
 7248WAT     H221767   1.134   4.151   1.708
 7249WAT      O21768   0.600   4.247   2.993
 7249WAT     H121769   0.591   4.153   2.978
 7249WAT     H221770   0.684   4.269   2.953
 7250WAT      O21771   0.940   4.021   1.989
 7250WAT     H121772   0.979   4.053   1.908
 7250WAT     H221773   0.976   3.933   2.000
 7251WAT      O21774   0.771   3.896   3.115
 7251WAT     H121775   0.702   3.877   3.178
 7251WAT     H221776   0.845   3.925   3.168
 7252WAT      O21777   0.998   4.280   2.399
 7252WAT     H121778   0.925   4.331   2.433
 7252WAT     H221779   0.959   4.199   2.368
 7253WAT      O21780   0.642   3.948   2.239
 7253WAT     H121781   0.642   3.904   2.154
 7253WAT     H221782   0.732   3.980   2.250
 7254WAT      O21783   0.648   4.048   1.538
 7254WAT     H121784   0.660   4.044   1.633
 7254WAT     H221785   0.610   4.134   1.523
 7255WAT      O21786   1.045   3.826   2.340
 7255WAT     H121787   1.046   3.871   2.424
 7255WAT     H221788   1.020   3.736   2.361
 7256WAT      O21789   0.549   4.279   1.478
 7256WAT     H121790   0.493   4.234   1.415
 7256WAT     H221791   0.620   4.315   1.425
 7257WAT      O21792   1.387   3.567   2.924
 7257WAT     H121793   1.420   3.494   2.976
 7257WAT     H221794   1.391   3.535   2.833
 7258WAT      O21795   0.672   4.354   2.414
 7258WAT     H121796   0.709   4.306   2.488
 7258WAT     H221797   0.653   4.441   2.448
 7259WAT      O21798   0.451   4.258   2.646
 7259WAT     H121799   0.421   4.346   2.668
 7259WAT     H221800   0.547   4.264   2.649
 7260WAT      O21801   0.304   4.679   1.705
 7260WAT     H121802   0.227   4.625   1.689
 7260WAT     H221803   0.377   4.627   1.671
 7261WAT      O21804   1.380   4.578   2.284
 7261WAT     H121805   1.452   4.628   2.245
 7261WAT     H221806   1.360   4.510   2.220
 7262WAT      O21807   0.926   3.718   1.699
 7262WAT     H121808   0.845   3.668   1.691
 7262WAT     H221809   0.907   3.802   1.657
 7263WAT      O21810   0.918   4.585   2.873
 7263WAT     H121811   0.911   4.493   2.848
 7263WAT     H221812   0.855   4.595   2.945
 7264WAT      O21813   1.197   4.155   1.528
 7264WAT     H121814   1.286   4.186   1.511
 7264WAT     H221815   1.194   4.067   1.489
 7265WAT      O21816   0.308   4.645   2.069
 7265WAT     H121817   0.360   4.565   2.064
 7265WAT     H221818   0.263   4.639   2.153
 7266WAT      O21819   0.797   4.772   1.596
 7266WAT     H121820   0.831   4.846   1.547
 7266WAT     H221821   0.714   4.803   1.633
 7267WAT      O21822   0.377   4.388   3.049
 7267WAT     H121823   0.347   4.402   2.959
 7267WAT     H221824   0.454   4.332   3.039
 7268WAT      O21825   0.911   4.867   2.848
 7268WAT     H121826   0.913   4.774   2.826
 7268WAT     H221827   0.840   4.876   2.912
 7269WAT      O21828   1.425   4.286   1.475
 7269WAT     H121829   1.416   4.329   1.390
 7269WAT     H221830   1.496   4.332   1.518
 7270WAT      O21831   1.532   4.532   2.783
 7270WAT     H121832   1.460   4.591   2.763
 7270WAT     H221833   1.585   4.531   2.703
 7271WAT      O21834   1.527   4.971   1.748
 7271WAT     H121835   1.463   4.906   1.775
 7271WAT     H221836   1.489   5.012   1.670
 7272WAT      O21837   1.085   4.704   2.133
 7272WAT     H121838   1.121   4.644   2.067
 7272WAT     H221839   0.997   4.672   2.150
 7273WAT      O21840   0.694   4.780   1.873
 7273WAT     H121841   0.763   4.835   1.912
 7273WAT     H221842   0.615   4.835   1.877
 7274WAT      O21843   0.624   4.481   1.835
 7274WAT     H121844   0.670   4.562   1.857
 7274WAT     H221845   0.589   4.449   1.918
 7275WAT      O21846   0.855   5.032   2.558
 7275WAT     H121847   0.919   5.052   2.625
 7275WAT     H221848   0.891   4.956   2.512
 7276WAT      O21849   0.982   4.832   2.429
 7276WAT     H121850   1.046   4.762   2.441
 7276WAT     H221851   1.034   4.910   2.411
 7277WAT      O21852   1.366   4.860   1.402
 7277WAT     H121853   1.344   4.789   1.461
 7277WAT     H221854   1.327   4.836   1.318
 7278WAT      O21855   1.159   4.912   2.750
 7278WAT     H121856   1.193   4.971   2.818
 7278WAT     H221857   1.067   4.899   2.773
 7279WAT      O21858   1.325   4.652   1.568
 7279WAT     H121859   1.296   4.698   1.647
 7279WAT     H221860   1.404   4.606   1.595
 7280WAT      O21861   0.742   4.917   3.067
 7280WAT     H121862   0.710   4.845   3.121
 7280WAT     H221863   0.675   4.984   3.074
 7281WAT      O21864   0.546   5.001   1.561
 7281WAT     H121865   0.545   5.075   1.499
 7281WAT     H221866   0.454   4.977   1.570
 7282WAT      O21867   1.064   3.940   2.603
 7282WAT     H121868   1.100   3.858   2.636
 7282WAT     H221869   0.978   3.946   2.645
 7283WAT      O21870   1.400   3.836   1.684
 7283WAT     H121871   1.337   3.846   1.612
 7283WAT     H221872   1.351   3.858   1.763
 7284WAT      O21873   0.845   5.008   1.427
 7284WAT     H121874   0.855   4.987   1.334
 7284WAT     H221875   0.755   4.982   1.448
 7285WAT      O21876   0.597   4.064   1.825
 7285WAT     H121877   0.526   4.110   1.870
 7285WAT     H221878   0.626   3.998   1.889
 7286WAT      O21879   0.760   4.205   2.625
 7286WAT     H121880   0.810   4.253   2.692
 7286WAT     H221881   0.774   4.113   2.646
 7287WAT      O21882   1.000   3.736   1.969
 7287WAT     H121883   0.988   3.738   1.874
 7287WAT     H221884   1.095   3.741   1.981
 7288WAT      O21885   0.709   5.260   1.897
 7288WAT     H121886   0.734   5.256   1.804
 7288WAT     H221887   0.614   5.247   1.896
 7289WAT      O21888   0.417   3.894   1.563
 7289WAT     H121889   0.502   3.938   1.556
 7289WAT     H221890   0.381   3.926   1.646
 7290WAT      O21891   1.480   3.827   2.710
 7290WAT     H121892   1.430   3.901   2.744
 7290WAT     H221893   1.562   3.866   2.678
 7291WAT      O21894   1.310   4.352   2.054
 7291WAT     H121895   1.215   4.353   2.072
 7291WAT     H221896   1.341   4.273   2.099
 7292WAT      O21897   0.307   4.520   1.410
 7292WAT     H121898   0.384   4.509   1.467
 7292WAT     H221899   0.315   4.450   1.345
 7293WAT      O21900   0.177   4.263   1.479
 7293WAT     H121901   0.185   4.168   1.490
 7293WAT     H221902   0.266   4.296   1.489
 7294WAT      O21903   1.510   5.069   2.222
 7294WAT     H121904   1.522   5.151   2.269
 7294WAT     H221905   1.596   5.048   2.187
 7295WAT      O21906   0.257   5.278   2.189
 7295WAT     H121907   0.331   5.223   2.216
 7295WAT     H221908   0.295   5.364   2.175
 7296WAT      O21909   0.568   5.195   1.371
 7296WAT     H121910   0.647   5.224   1.326
 7296WAT     H221911   0.516   5.152   1.303
 7297WAT      O21912   1.041   4.807   3.103
 7297WAT     H121913   0.981   4.809   3.029
 7297WAT     H221914   1.011   4.734   3.156
 7298WAT      O21915   1.184   5.180   2.964
 7298WAT     H121916   1.279   5.172   2.959
 7298WAT     H221917   1.169   5.246   3.031
 7299WAT      O21918   1.473   5.118   1.514
 7299WAT     H121919   1.445   5.077   1.432
 7299WAT     H221920   1.453   5.211   1.502
 7300WAT      O21921   0.620   4.717   1.358
 7300WAT     H121922   0.609   4.656   1.430
 7300WAT     H221923   0.603   4.665   1.279
 7301WAT      O21924   0.635   4.586   2.956
 7301WAT     H121925   0.558   4.643   2.947
 7301WAT     H221926   0.653   4.557   2.866
 7302WAT      O21927   0.944   4.623   1.418
 7302WAT     H121928   0.889   4.668   1.483
 7302WAT     H221929   1.006   4.573   1.470
 7303WAT      O21930   1.349   4.759   3.011
 7303WAT     H121931   1.423   4.793   2.961
 7303WAT     H221932   1.273   4.776   2.956
 7304WAT      O21933   0.511   4.519   1.608
 7304WAT     H121934   0.553   4.503   1.692
 7304WAT     H221935   0.523   4.438   1.558
 7305WAT      O21936   0.327   4.117   2.888
 7305WAT     H121937   0.274   4.068   2.826
 7305WAT     H221938   0.394   4.160   2.835
 7306WAT      O21939   0.762   4.422   1.333
 7306WAT     H121940   0.814   4.350   1.296
 7306WAT     H221941   0.827   4.486   1.363
 7307WAT      O21942   1.217   4.564   2.865
 7307WAT     H121943   1.258   4.579   2.950
 7307WAT     H221944   1.123   4.577   2.881
 7308WAT      O21945   1.264   4.298   3.065
 7308WAT     H121946   1.322   4.222   3.056
 7308WAT     H221947   1.281   4.351   2.988
 7309WAT      O21948   0.376   3.814   2.896
 7309WAT     H121949   0.366   3.752   2.824
 7309WAT     H221950   0.318   3.887   2.874
 7310WAT      O21951   0.652   3.670   2.600
 7310WAT     H121952   0.607   3.672   2.515
 7310WAT     H221953   0.589   3.630   2.659
 7311WAT      O21954   0.693   4.559   2.662
 7311WAT     H121955   0.735   4.644   2.645
 7311WAT     H221956   0.601   4.573   2.639
 7312WAT      O21957   0.926   4.332   2.800
 7312WAT     H121958   0.938   4.273   2.874
 7312WAT     H221959   1.012   4.336   2.758
 7313WAT      O21960   1.160   4.388   2.658
 7313WAT     H121961   1.108   4.440   2.597
 7313WAT     H221962   1.195   4.451   2.721
 7314WAT      O21963   0.400   4.127   1.302
 7314WAT     H121964   0.380   4.040   1.338
 7314WAT     H221965   0.383   4.118   1.209
 7315WAT      O21966   0.478   5.190   2.773
 7315WAT     H121967   0.424   5.262   2.741
 7315WAT     H221968   0.503   5.142   2.694
 7316WAT      O21969   0.603   3.987   2.926
 7316WAT     H121970   0.662   3.956   2.995
 7316WAT     H221971   0.521   3.939   2.942
 7317WAT      O21972   1.085   3.948   2.949
 7317WAT     H121973   1.016   3.882   2.943
 7317WAT     H221974   1.157   3.904   2.994
 7318WAT      O21975   1.148   3.608   1.555
 7318WAT     H121976   1.176   3.523   1.591
 7318WAT     H221977   1.071   3.631   1.607
 7319WAT      O21978   0.280   3.837   1.301
 7319WAT     H121979   0.310   3.837   1.210
 7319WAT     H221980   0.354   3.802   1.351
 7320WAT      O21981   0.763   5.313   2.799
 7320WAT     H121982   0.756   5.404   2.830
 7320WAT     H221983   0.673   5.281   2.796
 7321WAT      O21984   0.602   3.731   1.400
 7321WAT     H121985   0.567   3.663   1.342
 7321WAT     H221986   0.622   3.685   1.481
 7322WAT      O21987   0.818   5.230   1.562
 7322WAT     H121988   0.908   5.264   1.564
 7322WAT     H221989   0.821   5.158   1.499
 7323WAT      O21990   0.182   4.767   1.384
 7323WAT     H121991   0.226   4.821   1.450
 7323WAT     H221992   0.231   4.685   1.385
 7324WAT      O21993   0.363   4.879   1.896
 7324WAT     H121994   0.333   4.867   1.986
 7324WAT     H221995   0.353   4.793   1.855
 7325WAT      O21996   1.516   5.083   2.832
 7325WAT     H121997   1.456   5.089   2.758
 7325WAT     H221998   1.529   4.989   2.845
 7326WAT      O21999   1.640   4.857   1.366
 7326WAT     H122000   1.557   4.864   1.413
 7326WAT     H222001   1.658   4.946   1.336
 7327WAT      O22002   1.586   4.532   1.616
 7327WAT     H122003   1.662   4.589   1.627
 7327WAT     H222004   1.587   4.475   1.693
 7328WAT      O22005   1.686   4.617   2.101
 7328WAT     H122006   1.724   4.539   2.060
 7328WAT     H222007   1.750   4.686   2.083
 7329WAT      O22008   1.385   4.755   2.642
 7329WAT     H122009   1.303   4.798   2.668
 7329WAT     H222010   1.426   4.817   2.581
 7330WAT      O22011   1.591   4.561   1.332
 7330WAT     H122012   1.619   4.652   1.319
 7330WAT     H222013   1.572   4.555   1.426
 7331WAT      O22014   1.231   3.863   1.461
 7331WAT     H122015   1.273   3.845   1.377
 7331WAT     H222016   1.200   3.778   1.493
 7332WAT      O22017   1.581   4.355   1.831
 7332WAT     H122018   1.543   4.278   1.788
 7332WAT     H222019   1.508   4.393   1.880
 7333WAT      O22020   1.520   4.269   2.795
 7333WAT     H122021   1.497   4.246   2.705
 7333WAT     H222022   1.546   4.361   2.790
 7334WAT      O22023   1.364   3.792   3.072
 7334WAT     H122024   1.451   3.793   3.111
 7334WAT     H222025   1.365   3.718   3.011
 7335WAT      O22026   1.508   4.177   2.161
 7335WAT     H122027   1.561   4.128   2.098
 7335WAT     H222028   1.567   4.191   2.236
 7336WAT      O22029   1.526   4.186   2.514
 7336WAT     H122030   1.431   4.182   2.525
 7336WAT     H222031   1.544   4.277   2.490
 7337WAT      O22032   1.457   4.103   1.755
 7337WAT     H122033   1.507   4.080   1.834
 7337WAT     H222034   1.437   4.019   1.714
 7338WAT      O22035   1.600   3.966   2.009
 7338WAT     H122036   1.589   3.951   2.102
 7338WAT     H222037   1.676   3.914   1.984
 7339WAT      O22038   1.435   3.560   2.654
 7339WAT     H122039   1.498   3.622   2.691
 7339WAT     H222040   1.449   3.564   2.560
 7340WAT      O22041   1.689   3.750   1.333
 7340WAT     H122042   1.781   3.736   1.312
 7340WAT     H222043   1.687   3.757   1.428
 7341WAT      O22044   1.696   3.827   1.595
 7341WAT     H122045   1.617   3.820   1.648
 7341WAT     H222046   1.717   3.920   1.594
 7342WAT      O22047   1.391   5.231   1.995
 7342WAT     H122048   1.450   5.198   1.927
 7342WAT     H222049   1.416   5.183   2.074
 7343WAT      O22050   0.181   4.874   3.010
 7343WAT     H122051   0.177   4.837   3.098
 7343WAT     H222052   0.194   4.968   3.024
 7344WAT      O22053   0.551   5.029   2.570
 7344WAT     H122054   0.527   5.056   2.481
 7344WAT     H222055   0.645   5.046   2.575
 7345WAT      O22056   0.772   3.676   2.945
 7345WAT     H122057   0.766   3.735   3.020
 7345WAT     H222058   0.866   3.665   2.931
 7346WAT      O22059   1.036   3.641   2.909
 7346WAT     H122060   1.097   3.673   2.843
 7346WAT     H222061   1.090   3.593   2.971
 7347WAT      O22062   1.677   5.231   2.650
 7347WAT     H122063   1.628   5.271   2.578
 7347WAT     H222064   1.616   5.169   2.689
 7348WAT      O22065   1.110   3.498   2.542
 7348WAT     H122066   1.022   3.531   2.522
 7348WAT     H222067   1.099   3.450   2.624
 7349WAT      O22068   1.200   3.718   2.680
 7349WAT     H122069   1.167   3.637   2.642
 7349WAT     H222070   1.295   3.714   2.668
 7350WAT      O22071   1.446   5.296   2.378
 7350WAT     H122072   1.400   5.371   2.340
 7350WAT     H222073   1.383   5.224   2.372
 7351WAT      O22074   0.489   5.126   2.295
 7351WAT     H122075   0.540   5.065   2.243
 7351WAT     H222076   0.554   5.177   2.344
 7352WAT      O22077   0.763   5.216   2.378
 7352WAT     H122078   0.791   5.190   2.290
 7352WAT     H222079   0.814   5.160   2.437
 7353WAT      O22080   0.884   3.589   2.436
 7353WAT     H122081   0.806   3.637   2.464
 7353WAT     H222082   0.855   3.499   2.425
 7354WAT      O22083   1.340   3.660   2.240
 7354WAT     H122084   1.384   3.654   2.155
 7354WAT     H222085   1.313   3.751   2.247
 7355WAT      O22086   1.526   3.623   2.041
 7355WAT     H122087   1.520   3.528   2.027
 7355WAT     H222088   1.604   3.634   2.096
 7356WAT      O22089   0.673   3.831   1.987
 7356WAT     H122090   0.592   3.794   1.953
 7356WAT     H222091   0.723   3.756   2.017
 7357WAT      O22092   1.123   3.498   2.111
 7357WAT     H122093   1.183   3.555   2.158
 7357WAT     H222094   1.049   3.554   2.088
 7358WAT      O22095   1.437   3.538   1.638
 7358WAT     H122096   1.457   3.628   1.665
 7358WAT     H222097   1.359   3.515   1.687
 7359WAT      O22098   0.256   3.673   1.542
 7359WAT     H122099   0.309   3.594   1.529
 7359WAT     H222100   0.319   3.740   1.565
 7360WAT      O22101   0.475   3.646   1.847
 7360WAT     H122102   0.412   3.576   1.864
 7360WAT     H222103   0.421   3.722   1.826
 7361WAT      O22104   0.769   5.308   3.114
 7361WAT     H122105   0.862   5.284   3.119
 7361WAT     H222106   0.768   5.390   3.066
 7362WAT      O22107   1.593   5.262   1.814
 7362WAT     H122108   1.610   5.193   1.750
 7362WAT     H222109   1.523   5.314   1.775
 7363WAT      O22110   0.488   3.574   3.091
 7363WAT     H122111   0.460   3.624   3.014
 7363WAT     H222112   0.526   3.494   3.054
 7364WAT      O22113   0.377   5.301   1.570
 7364WAT     H122114   0.450   5.272   1.515
 7364WAT     H222115   0.403   5.277   1.659
 7365WAT      O22116   0.293   4.913   1.570
 7365WAT     H122117   0.230   4.959   1.625
 7365WAT     H222118   0.305   4.828   1.613
 7366WAT      O22119   1.148   3.516   3.149
 7366WAT     H122120   1.137   3.548   3.238
 7366WAT     H222121   1.230   3.556   3.119
 7367WAT      O22122   1.426   5.230   3.097
 7367WAT     H122123   1.505   5.181   3.076
 7367WAT     H222124   1.455   5.298   3.158
 7368WAT      O22125   0.852   4.495   0.373
 7368WAT     H122126   0.774   4.447   0.402
 7368WAT     H222127   0.917   4.427   0.356
 7369WAT      O22128   1.254   4.936   0.251
 7369WAT     H122129   1.208   4.859   0.284
 7369WAT     H222130   1.335   4.939   0.302
 7370WAT      O22131   0.252   4.930   0.480
 7370WAT     H122132   0.282   4.841   0.463
 7370WAT     H222133   0.326   4.986   0.458
 7371WAT      O22134   0.796   4.763   0.374
 7371WAT     H122135   0.789   4.669   0.358
 7371WAT     H222136   0.872   4.772   0.431
 7372WAT      O22137   0.899   4.044   0.397
 7372WAT     H122138   0.937   3.956   0.385
 7372WAT     H222139   0.889   4.077   0.307
 7373WAT      O22140   0.496   4.178   0.376
 7373WAT     H122141   0.547   4.228   0.440
 7373WAT     H222142   0.549   4.100   0.358
 7374WAT      O22143   1.706   3.995   0.746
 7374WAT     H122144   1.636   4.034   0.694
 7374WAT     H222145   1.733   4.064   0.806
 7375WAT      O22146   0.324   3.642   0.803
 7375WAT     H122147   0.325   3.693   0.722
 7375WAT     H222148   0.242   3.594   0.800
 7376WAT      O22149   0.449   4.606   0.620
 7376WAT     H122150   0.416   4.668   0.685
 7376WAT     H222151   0.467   4.658   0.542
 7377WAT      O22152   1.301   3.987   0.367
 7377WAT     H122153   1.230   4.016   0.425
 7377WAT     H222154   1.337   4.068   0.331
 7378WAT      O22155   0.293   3.813   0.603
 7378WAT     H122156   0.327   3.897   0.574
 7378WAT     H222157   0.199   3.828   0.615
 7379WAT      O22158   0.371   4.803   0.802
 7379WAT     H122159   0.432   4.870   0.774
 7379WAT     H222160   0.285   4.843   0.793
 7380WAT      O22161   1.462   4.949   0.593
 7380WAT     H122162   1.394   5.016   0.593
 7380WAT     H222163   1.516   4.969   0.517
 7381WAT      O22164   1.608   3.932   0.406
 7381WAT     H122165   1.513   3.935   0.419
 7381WAT     H222166   1.640   4.013   0.445
 7382WAT      O22167   1.216   5.133   0.465
 7382WAT     H122168   1.217   5.093   0.378
 7382WAT     H222169   1.161   5.211   0.454
 7383WAT      O22170   1.156   4.624   0.598
 7383WAT     H122171   1.198   4.602   0.514
 7383WAT     H222172   1.228   4.649   0.655
 7384WAT      O22173   1.551   4.464   0.607
 7384WAT     H122174   1.468   4.470   0.559
 7384WAT     H222175   1.610   4.522   0.560
 7385WAT      O22176   1.247   4.142   0.701
 7385WAT     H122177   1.206   4.225   0.727
 7385WAT     H222178   1.174   4.084   0.682
 7386WAT      O22179   0.507   4.789   0.404
 7386WAT     H122180   0.477   4.729   0.336
 7386WAT     H222181   0.602   4.793   0.393
 7387WAT      O22182   0.332   4.098   0.566
 7387WAT     H122183   0.387   4.109   0.488
 7387WAT     H222184   0.383   4.136   0.637
 7388WAT      O22185   1.316   5.147   0.770
 7388WAT     H122186   1.268   5.228   0.751
 7388WAT     H222187   1.248   5.082   0.785
 7389WAT      O22188   0.416   4.763   1.069
 7389WAT     H122189   0.327   4.786   1.094
 7389WAT     H222190   0.419   4.776   0.974
 7390WAT      O22191   0.299   4.450   0.927
 7390WAT     H122192   0.285   4.538   0.963
 7390WAT     H222193   0.211   4.416   0.912
 7391WAT      O22194   0.479   5.045   1.147
 7391WAT     H122195   0.476   5.085   1.061
 7391WAT     H222196   0.462   4.952   1.131
 7392WAT      O22197   1.674   5.123   1.277
 7392WAT     H122198   1.722   5.171   1.345
 7392WAT     H222199   1.736   5.116   1.205
 7393WAT      O22200   1.614   4.842   0.993
 7393WAT     H122201   1.627   4.818   0.901
 7393WAT     H222202   1.618   4.759   1.040
 7394WAT      O22203   1.000   5.212   0.850
 7394WAT     H122204   1.052   5.203   0.930
 7394WAT     H222205   0.916   5.247   0.879
 7395WAT      O22206   1.600   4.047   1.090
 7395WAT     H122207   1.538   4.098   1.037
 7395WAT     H222208   1.567   3.957   1.084
 7396WAT      O22209   0.377   3.645   0.276
 7396WAT     H122210   0.333   3.723   0.243
 7396WAT     H222211   0.433   3.677   0.347
 7397WAT      O22212   0.806   3.931   0.836
 7397WAT     H122213   0.759   3.952   0.917
 7397WAT     H222214   0.765   3.850   0.806
 7398WAT      O22215   1.306   4.053   0.949
 7398WAT     H122216   1.221   4.023   0.981
 7398WAT     H222217   1.290   4.078   0.858
 7399WAT      O22218   1.015   4.203   1.159
 7399WAT     H122219   1.048   4.120   1.125
 7399WAT     H222220   1.094   4.256   1.174
 7400WAT      O22221   0.581   3.699   0.462
 7400WAT     H122222   0.610   3.790   0.454
 7400WAT     H222223   0.636   3.650   0.400
 7401WAT      O22224   0.600   4.247   1.115
 7401WAT     H122225   0.591   4.153   1.100
 7401WAT     H222226   0.684   4.269   1.076
 7402WAT      O22227   0.771   3.896   1.238
 7402WAT     H122228   0.702   3.877   1.301
 7402WAT     H222229   0.845   3.925   1.291
 7403WAT      O22230   0.998   4.280   0.521
 7403WAT     H122231   0.925   4.331   0.556
 7403WAT     H222232   0.959   4.199   0.491
 7404WAT      O22233   0.642   3.948   0.362
 7404WAT     H122234   0.642   3.904   0.277
 7404WAT     H222235   0.732   3.980   0.372
 7405WAT      O22236   1.045   3.826   0.462
 7405WAT     H122237   1.046   3.871   0.547
 7405WAT     H222238   1.020   3.736   0.484
 7406WAT      O22239   1.387   3.567   1.046
 7406WAT     H122240   1.420   3.494   1.099
 7406WAT     H222241   1.391   3.535   0.956
 7407WAT      O22242   0.672   4.354   0.536
 7407WAT     H122243   0.709   4.306   0.611
 7407WAT     H222244   0.653   4.441   0.570
 7408WAT      O22245   0.451   4.258   0.768
 7408WAT     H122246   0.421   4.346   0.791
 7408WAT     H222247   0.547   4.264   0.772
 7409WAT      O22248   1.380   4.578   0.407
 7409WAT     H122249   1.452   4.628   0.368
 7409WAT     H222250   1.360   4.510   0.343
 7410WAT      O22251   0.918   4.585   0.996
 7410WAT     H122252   0.911   4.493   0.970
 7410WAT     H222253   0.855   4.595   1.067
 7411WAT      O22254   0.308   4.645   0.192
 7411WAT     H122255   0.360   4.565   0.186
 7411WAT     H222256   0.263   4.639   0.276
 7412WAT      O22257   0.377   4.388   1.171
 7412WAT     H122258   0.347   4.402   1.081
 7412WAT     H222259   0.454   4.332   1.162
 7413WAT      O22260   0.911   4.867   0.971
 7413WAT     H122261   0.913   4.774   0.949
 7413WAT     H222262   0.840   4.876   1.035
 7414WAT      O22263   1.532   4.532   0.905
 7414WAT     H122264   1.460   4.591   0.886
 7414WAT     H222265   1.585   4.531   0.826
 7415WAT      O22266   1.085   4.704   0.255
 7415WAT     H122267   1.121   4.644   0.189
 7415WAT     H222268   0.997   4.672   0.272
 7416WAT      O22269   0.855   5.032   0.680
 7416WAT     H122270   0.919   5.052   0.748
 7416WAT     H222271   0.891   4.956   0.635
 7417WAT      O22272   0.982   4.832   0.552
 7417WAT     H122273   1.046   4.762   0.563
 7417WAT     H222274   1.034   4.910   0.534
 7418WAT      O22275   1.159   4.912   0.872
 7418WAT     H122276   1.193   4.971   0.940
 7418WAT     H222277   1.067   4.899   0.895
 7419WAT      O22278   0.742   4.917   1.189
 7419WAT     H122279   0.710   4.845   1.244
 7419WAT     H222280   0.675   4.984   1.197
 7420WAT      O22281   1.064   3.940   0.726
 7420WAT     H122282   1.100   3.858   0.758
 7420WAT     H222283   0.978   3.946   0.767
 7421WAT      O22284   0.760   4.205   0.748
 7421WAT     H122285   0.810   4.253   0.814
 7421WAT     H222286   0.774   4.113   0.769
 7422WAT      O22287   1.480   3.827   0.832
 7422WAT     H122288   1.430   3.901   0.866
 7422WAT     H222289   1.562   3.866   0.801
 7423WAT      O22290   1.310   4.352   0.177
 7423WAT     H122291   1.215   4.353   0.194
 7423WAT     H222292   1.341   4.273   0.221
 7424WAT      O22293   1.510   5.069   0.344
 7424WAT     H122294   1.522   5.151   0.392
 7424WAT     H222295   1.596   5.048   0.310
 7425WAT      O22296   0.257   5.278   0.312
 7425WAT     H122297   0.331   5.223   0.339
 7425WAT     H222298   0.295   5.364   0.298
 7426WAT      O22299   1.041   4.807   1.225
 7426WAT     H122300   0.981   4.809   1.151
 7426WAT     H222301   1.011   4.734   1.279
 7427WAT      O22302   1.184   5.180   1.086
 7427WAT     H122303   1.279   5.172   1.081
 7427WAT     H222304   1.169   5.246   1.154
 7428WAT      O22305   0.635   4.586   1.078
 7428WAT     H122306   0.558   4.643   1.070
 7428WAT     H222307   0.653   4.557   0.989
 7429WAT      O22308   1.349   4.759   1.134
 7429WAT     H122309   1.423   4.793   1.084
 7429WAT     H222310   1.273   4.776   1.079
 7430WAT      O22311   0.327   4.117   1.011
 7430WAT     H122312   0.274   4.068   0.948
 7430WAT     H222313   0.394   4.160   0.958
 7431WAT      O22314   1.217   4.564   0.987
 7431WAT     H122315   1.258   4.579   1.072
 7431WAT     H222316   1.123   4.577   1.004
 7432WAT      O22317   1.264   4.298   1.188
 7432WAT     H122318   1.322   4.222   1.179
 7432WAT     H222319   1.281   4.351   1.110
 7433WAT      O22320   0.376   3.814   1.019
 7433WAT     H122321   0.366   3.752   0.946
 7433WAT     H222322   0.318   3.887   0.996
 7434WAT      O22323   0.652   3.670   0.722
 7434WAT     H122324   0.607   3.672   0.638
 7434WAT     H222325   0.589   3.630   0.782
 7435WAT      O22326   0.693   4.559   0.784
 7435WAT     H122327   0.735   4.644   0.767
 7435WAT     H222328   0.601   4.573   0.761
 7436WAT      O22329   0.926   4.332   0.923
 7436WAT     H122330   0.938   4.273   0.997
 7436WAT     H222331   1.012   4.336   0.881
 7437WAT      O22332   1.160   4.388   0.780
 7437WAT     H122333   1.108   4.440   0.720
 7437WAT     H222334   1.195   4.451   0.843
 7438WAT      O22335   0.478   5.190   0.896
 7438WAT     H122336   0.424   5.262   0.864
 7438WAT     H222337   0.503   5.142   0.817
 7439WAT      O22338   0.603   3.987   1.049
 7439WAT     H122339   0.662   3.956   1.117
 7439WAT     H222340   0.521   3.939   1.064
 7440WAT      O22341   1.085   3.948   1.072
 7440WAT     H122342   1.016   3.882   1.065
 7440WAT     H222343   1.157   3.904   1.116
 7441WAT      O22344   0.763   5.313   0.922
 7441WAT     H122345   0.756   5.404   0.953
 7441WAT     H222346   0.673   5.281   0.919
 7442WAT      O22347   1.516   5.083   0.955
 7442WAT     H122348   1.456   5.089   0.880
 7442WAT     H222349   1.529   4.989   0.968
 7443WAT      O22350   1.686   4.617   0.223
 7443WAT     H122351   1.724   4.539   0.183
 7443WAT     H222352   1.750   4.686   0.205
 7444WAT      O22353   1.385   4.755   0.765
 7444WAT     H122354   1.303   4.798   0.791
 7444WAT     H222355   1.426   4.817   0.703
 7445WAT      O22356   1.520   4.269   0.917
 7445WAT     H122357   1.497   4.246   0.827
 7445WAT     H222358   1.546   4.361   0.913
 7446WAT      O22359   1.364   3.792   1.195
 7446WAT     H122360   1.451   3.793   1.233
 7446WAT     H222361   1.365   3.718   1.134
 7447WAT      O22362   1.508   4.177   0.284
 7447WAT     H122363   1.561   4.128   0.221
 7447WAT     H222364   1.567   4.191   0.358
 7448WAT      O22365   1.526   4.186   0.636
 7448WAT     H122366   1.431   4.182   0.648
 7448WAT     H222367   1.544   4.277   0.613
 7449WAT      O22368   1.435   3.560   0.777
 7449WAT     H122369   1.498   3.622   0.814
 7449WAT     H222370   1.449   3.564   0.683
 7450WAT      O22371   0.181   4.874   1.132
 7450WAT     H122372   0.177   4.837   1.220
 7450WAT     H222373   0.194   4.968   1.146
 7451WAT      O22374   0.551   5.029   0.692
 7451WAT     H122375   0.527   5.056   0.603
 7451WAT     H222376   0.645   5.046   0.698
 7452WAT      O22377   0.772   3.676   1.068
 7452WAT     H122378   0.766   3.735   1.143
 7452WAT     H222379   0.866   3.665   1.053
 7453WAT      O22380   1.036   3.641   1.032
 7453WAT     H122381   1.097   3.673   0.965
 7453WAT     H222382   1.090   3.593   1.094
 7454WAT      O22383   1.677   5.231   0.772
 7454WAT     H122384   1.628   5.271   0.701
 7454WAT     H222385   1.616   5.169   0.812
 7455WAT      O22386   1.110   3.498   0.664
 7455WAT     H122387   1.022   3.531   0.644
 7455WAT     H222388   1.099   3.450   0.747
 7456WAT      O22389   1.200   3.718   0.803
 7456WAT     H122390   1.167   3.637   0.765
 7456WAT     H222391   1.295   3.714   0.790
 7457WAT      O22392   1.446   5.296   0.500
 7457WAT     H122393   1.400   5.371   0.463
 7457WAT     H222394   1.383   5.224   0.494
 7458WAT      O22395   0.489   5.126   0.418
 7458WAT     H122396   0.540   5.065   0.365
 7458WAT     H222397   0.554   5.177   0.467
 7459WAT      O22398   0.763   5.216   0.500
 7459WAT     H122399   0.791   5.190   0.413
 7459WAT     H222400   0.814   5.160   0.559
 7460WAT      O22401   0.884   3.589   0.558
 7460WAT     H122402   0.806   3.637   0.586
 7460WAT     H222403   0.855   3.499   0.547
 7461WAT      O22404   1.340   3.660   0.363
 7461WAT     H122405   1.384   3.654   0.278
 7461WAT     H222406   1.313   3.751   0.370
 7462WAT      O22407   1.123   3.498   0.233
 7462WAT     H122408   1.183   3.555   0.281
 7462WAT     H222409   1.049   3.554   0.211
 7463WAT      O22410   0.769   5.308   1.237
 7463WAT     H122411   0.862   5.284   1.241
 7463WAT     H222412   0.768   5.390   1.189
 7464WAT      O22413   0.488   3.574   1.213
 7464WAT     H122414   0.460   3.624   1.137
 7464WAT     H222415   0.526   3.494   1.177
 7465WAT      O22416   1.148   3.516   1.271
 7465WAT     H122417   1.137   3.548   1.361
 7465WAT     H222418   1.230   3.556   1.242
 7466WAT      O22419   1.426   5.230   1.219
 7466WAT     H122420   1.505   5.181   1.199
 7466WAT     H222421   1.455   5.298   1.280
 7467WAT      O22422   1.039   2.440   5.817
 7467WAT     H122423   1.031   2.349   5.790
 7467WAT     H222424   0.997   2.490   5.747
 7468WAT      O22425   0.852   2.618   6.005
 7468WAT     H122426   0.774   2.570   6.034
 7468WAT     H222427   0.917   2.550   5.988
 7469WAT      O22428   1.254   3.059   5.883
 7469WAT     H122429   1.208   2.981   5.916
 7469WAT     H222430   1.335   3.061   5.934
 7470WAT      O22431   0.252   3.053   6.113
 7470WAT     H122432   0.282   2.964   6.095
 7470WAT     H222433   0.326   3.108   6.090
 7471WAT      O22434   0.877   3.287   5.845
 7471WAT     H122435   0.815   3.333   5.788
 7471WAT     H222436   0.962   3.303   5.805
 7472WAT      O22437   0.796   2.886   6.006
 7472WAT     H122438   0.789   2.791   5.990
 7472WAT     H222439   0.872   2.895   6.063
 7473WAT      O22440   0.899   2.166   6.029
 7473WAT     H122441   0.937   2.079   6.018
 7473WAT     H222442   0.889   2.200   5.940
 7474WAT      O22443   0.312   2.003   5.575
 7474WAT     H122444   0.323   2.094   5.606
 7474WAT     H222445   0.221   1.999   5.546
 7475WAT      O22446   1.277   1.916   5.722
 7475WAT     H122447   1.359   1.867   5.726
 7475WAT     H222448   1.281   1.975   5.797
 7476WAT      O22449   0.496   2.300   6.008
 7476WAT     H122450   0.547   2.350   6.072
 7476WAT     H222451   0.549   2.223   5.991
 7477WAT      O22452   0.963   2.776   5.585
 7477WAT     H122453   0.901   2.822   5.528
 7477WAT     H222454   1.014   2.845   5.626
 7478WAT      O22455   1.301   2.110   5.999
 7478WAT     H122456   1.230   2.139   6.057
 7478WAT     H222457   1.337   2.191   5.963
 7479WAT      O22458   1.608   2.054   6.038
 7479WAT     H122459   1.513   2.058   6.052
 7479WAT     H222460   1.640   2.136   6.077
 7480WAT      O22461   0.661   1.684   5.868
 7480WAT     H122462   0.692   1.629   5.796
 7480WAT     H222463   0.568   1.698   5.850
 7481WAT      O22464   1.216   3.256   6.097
 7481WAT     H122465   1.217   3.216   6.010
 7481WAT     H222466   1.161   3.333   6.087
 7482WAT      O22467   1.346   2.928   5.606
 7482WAT     H122468   1.334   2.834   5.618
 7482WAT     H222469   1.345   2.964   5.695
 7483WAT      O22470   0.900   2.491   5.542
 7483WAT     H122471   0.807   2.484   5.565
 7483WAT     H222472   0.915   2.585   5.530
 7484WAT      O22473   0.898   2.118   5.241
 7484WAT     H122474   0.804   2.134   5.250
 7484WAT     H222475   0.930   2.190   5.187
 7485WAT      O22476   1.303   2.647   5.592
 7485WAT     H122477   1.241   2.613   5.527
 7485WAT     H222478   1.301   2.583   5.663
 7486WAT      O22479   0.460   2.543   5.820
 7486WAT     H122480   0.420   2.472   5.770
 7486WAT     H222481   0.469   2.509   5.909
 7487WAT      O22482   0.507   2.912   6.036
 7487WAT     H122483   0.477   2.852   5.968
 7487WAT     H222484   0.602   2.916   6.025
 7488WAT      O22485   1.120   2.571   5.293
 7488WAT     H122486   1.164   2.487   5.278
 7488WAT     H222487   1.192   2.634   5.301
 7489WAT      O22488   0.931   3.065   5.690
 7489WAT     H122489   0.975   3.139   5.648
 7489WAT     H222490   0.925   3.089   5.782
 7490WAT      O22491   1.479   1.696   5.124
 7490WAT     H122492   1.447   1.705   5.214
 7490WAT     H222493   1.555   1.754   5.119
 7491WAT      O22494   1.198   3.363   5.425
 7491WAT     H122495   1.182   3.334   5.515
 7491WAT     H222496   1.181   3.286   5.372
 7492WAT      O22497   0.446   3.341   5.603
 7492WAT     H122498   0.428   3.250   5.582
 7492WAT     H222499   0.360   3.377   5.627
 7493WAT      O22500   1.168   3.114   5.281
 7493WAT     H122501   1.099   3.114   5.215
 7493WAT     H222502   1.242   3.072   5.238
 7494WAT      O22503   1.125   3.277   5.689
 7494WAT     H122504   1.170   3.199   5.720
 7494WAT     H222505   1.159   3.348   5.743
 7495WAT      O22506   0.377   1.767   5.908
 7495WAT     H122507   0.333   1.845   5.875
 7495WAT     H222508   0.433   1.799   5.979
 7496WAT      O22509   0.689   1.729   5.396
 7496WAT     H122510   0.626   1.729   5.469
 7496WAT     H222511   0.680   1.643   5.357
 7497WAT      O22512   0.581   1.822   6.094
 7497WAT     H122513   0.610   1.912   6.086
 7497WAT     H222514   0.636   1.773   6.033
 7498WAT      O22515   0.356   2.280   5.681
 7498WAT     H122516   0.334   2.258   5.771
 7498WAT     H222517   0.278   2.323   5.646
 7499WAT      O22518   1.079   2.280   5.541
 7499WAT     H122519   1.019   2.353   5.522
 7499WAT     H222520   1.134   2.274   5.463
 7500WAT      O22521   0.940   2.144   5.744
 7500WAT     H122522   0.979   2.175   5.663
 7500WAT     H222523   0.976   2.056   5.755
 7501WAT      O22524   0.642   2.070   5.994
 7501WAT     H122525   0.642   2.026   5.909
 7501WAT     H222526   0.732   2.103   6.005
 7502WAT      O22527   0.648   2.170   5.293
 7502WAT     H122528   0.660   2.166   5.388
 7502WAT     H222529   0.610   2.257   5.277
 7503WAT      O22530   0.549   2.402   5.233
 7503WAT     H122531   0.493   2.357   5.170
 7503WAT     H222532   0.620   2.437   5.179
 7504WAT      O22533   0.304   2.801   5.460
 7504WAT     H122534   0.227   2.747   5.444
 7504WAT     H222535   0.377   2.749   5.426
 7505WAT      O22536   1.380   2.701   6.039
 7505WAT     H122537   1.452   2.750   6.000
 7505WAT     H222538   1.360   2.633   5.975
 7506WAT      O22539   0.926   1.840   5.454
 7506WAT     H122540   0.845   1.790   5.446
 7506WAT     H222541   0.907   1.924   5.412
 7507WAT      O22542   1.197   2.277   5.283
 7507WAT     H122543   1.286   2.308   5.266
 7507WAT     H222544   1.194   2.190   5.244
 7508WAT      O22545   0.308   2.768   5.824
 7508WAT     H122546   0.360   2.688   5.818
 7508WAT     H222547   0.263   2.762   5.908
 7509WAT      O22548   0.797   2.895   5.351
 7509WAT     H122549   0.831   2.969   5.302
 7509WAT     H222550   0.714   2.926   5.387
 7510WAT      O22551   1.425   2.408   5.230
 7510WAT     H122552   1.416   2.452   5.145
 7510WAT     H222553   1.496   2.454   5.273
 7511WAT      O22554   1.527   3.094   5.503
 7511WAT     H122555   1.463   3.028   5.530
 7511WAT     H222556   1.489   3.134   5.425
 7512WAT      O22557   1.085   2.827   5.888
 7512WAT     H122558   1.121   2.767   5.822
 7512WAT     H222559   0.997   2.794   5.905
 7513WAT      O22560   0.694   2.903   5.628
 7513WAT     H122561   0.763   2.957   5.666
 7513WAT     H222562   0.615   2.957   5.632
 7514WAT      O22563   0.624   2.603   5.590
 7514WAT     H122564   0.670   2.684   5.612
 7514WAT     H222565   0.589   2.571   5.673
 7515WAT      O22566   1.366   2.983   5.157
 7515WAT     H122567   1.344   2.911   5.216
 7515WAT     H222568   1.327   2.958   5.073
 7516WAT      O22569   1.325   2.775   5.323
 7516WAT     H122570   1.296   2.821   5.402
 7516WAT     H222571   1.404   2.729   5.350
 7517WAT      O22572   0.546   3.124   5.316
 7517WAT     H122573   0.545   3.197   5.254
 7517WAT     H222574   0.454   3.099   5.325
 7518WAT      O22575   1.400   1.958   5.439
 7518WAT     H122576   1.337   1.969   5.367
 7518WAT     H222577   1.351   1.980   5.518
 7519WAT      O22578   0.845   3.130   5.182
 7519WAT     H122579   0.855   3.110   5.089
 7519WAT     H222580   0.755   3.105   5.203
 7520WAT      O22581   0.597   2.186   5.580
 7520WAT     H122582   0.526   2.233   5.624
 7520WAT     H222583   0.626   2.120   5.644
 7521WAT      O22584   1.000   1.859   5.724
 7521WAT     H122585   0.988   1.860   5.629
 7521WAT     H222586   1.095   1.863   5.736
 7522WAT      O22587   0.709   3.382   5.652
 7522WAT     H122588   0.734   3.378   5.559
 7522WAT     H222589   0.614   3.369   5.651
 7523WAT      O22590   0.417   2.017   5.318
 7523WAT     H122591   0.502   2.061   5.311
 7523WAT     H222592   0.381   2.048   5.401
 7524WAT      O22593   1.310   2.474   5.809
 7524WAT     H122594   1.215   2.476   5.827
 7524WAT     H222595   1.341   2.395   5.854
 7525WAT      O22596   0.307   2.642   5.165
 7525WAT     H122597   0.384   2.631   5.221
 7525WAT     H222598   0.315   2.573   5.100
 7526WAT      O22599   0.177   2.386   5.234
 7526WAT     H122600   0.185   2.291   5.245
 7526WAT     H222601   0.266   2.419   5.244
 7527WAT      O22602   1.510   3.191   5.977
 7527WAT     H122603   1.522   3.273   6.024
 7527WAT     H222604   1.596   3.170   5.942
 7528WAT      O22605   0.257   3.400   5.944
 7528WAT     H122606   0.331   3.346   5.971
 7528WAT     H222607   0.295   3.487   5.930
 7529WAT      O22608   0.568   3.318   5.126
 7529WAT     H122609   0.647   3.347   5.081
 7529WAT     H222610   0.516   3.275   5.058
 7530WAT      O22611   1.473   3.240   5.268
 7530WAT     H122612   1.445   3.199   5.187
 7530WAT     H222613   1.453   3.333   5.256
 7531WAT      O22614   0.620   2.840   5.113
 7531WAT     H122615   0.609   2.778   5.185
 7531WAT     H222616   0.603   2.787   5.034
 7532WAT      O22617   0.944   2.746   5.173
 7532WAT     H122618   0.889   2.791   5.237
 7532WAT     H222619   1.006   2.696   5.225
 7533WAT      O22620   0.511   2.642   5.363
 7533WAT     H122621   0.553   2.625   5.447
 7533WAT     H222622   0.523   2.561   5.313
 7534WAT      O22623   0.762   2.544   5.087
 7534WAT     H122624   0.814   2.473   5.051
 7534WAT     H222625   0.827   2.608   5.117
 7535WAT      O22626   0.400   2.249   5.057
 7535WAT     H122627   0.380   2.163   5.093
 7535WAT     H222628   0.383   2.241   4.963
 7536WAT      O22629   1.148   1.730   5.310
 7536WAT     H122630   1.176   1.646   5.346
 7536WAT     H222631   1.071   1.754   5.361
 7537WAT      O22632   0.280   1.959   5.056
 7537WAT     H122633   0.310   1.960   4.965
 7537WAT     H222634   0.354   1.924   5.106
 7538WAT      O22635   0.602   1.854   5.155
 7538WAT     H122636   0.567   1.786   5.097
 7538WAT     H222637   0.622   1.807   5.236
 7539WAT      O22638   0.818   3.352   5.316
 7539WAT     H122639   0.908   3.386   5.319
 7539WAT     H222640   0.821   3.280   5.254
 7540WAT      O22641   0.182   2.890   5.139
 7540WAT     H122642   0.226   2.944   5.205
 7540WAT     H222643   0.231   2.807   5.140
 7541WAT      O22644   0.363   3.002   5.650
 7541WAT     H122645   0.333   2.989   5.741
 7541WAT     H222646   0.353   2.916   5.610
 7542WAT      O22647   1.640   2.980   5.121
 7542WAT     H122648   1.557   2.986   5.168
 7542WAT     H222649   1.658   3.069   5.090
 7543WAT      O22650   1.586   2.654   5.371
 7543WAT     H122651   1.662   2.711   5.382
 7543WAT     H222652   1.587   2.597   5.448
 7544WAT      O22653   1.686   2.740   5.856
 7544WAT     H122654   1.724   2.661   5.815
 7544WAT     H222655   1.750   2.808   5.838
 7545WAT      O22656   1.591   2.683   5.087
 7545WAT     H122657   1.619   2.774   5.074
 7545WAT     H222658   1.572   2.677   5.180
 7546WAT      O22659   1.231   1.986   5.216
 7546WAT     H122660   1.273   1.967   5.132
 7546WAT     H222661   1.200   1.901   5.247
 7547WAT      O22662   1.581   2.477   5.586
 7547WAT     H122663   1.543   2.400   5.543
 7547WAT     H222664   1.508   2.515   5.635
 7548WAT      O22665   1.508   2.300   5.916
 7548WAT     H122666   1.561   2.250   5.853
 7548WAT     H222667   1.567   2.313   5.991
 7549WAT      O22668   1.457   2.225   5.510
 7549WAT     H122669   1.507   2.202   5.589
 7549WAT     H222670   1.437   2.142   5.468
 7550WAT      O22671   1.600   2.089   5.763
 7550WAT     H122672   1.589   2.074   5.857
 7550WAT     H222673   1.676   2.036   5.739
 7551WAT      O22674   1.689   1.872   5.088
 7551WAT     H122675   1.781   1.859   5.067
 7551WAT     H222676   1.687   1.880   5.183
 7552WAT      O22677   1.696   1.949   5.350
 7552WAT     H122678   1.617   1.943   5.403
 7552WAT     H222679   1.717   2.043   5.349
 7553WAT      O22680   1.391   3.353   5.749
 7553WAT     H122681   1.450   3.321   5.682
 7553WAT     H222682   1.416   3.306   5.829
 7554WAT      O22683   1.446   3.418   6.132
 7554WAT     H122684   1.400   3.493   6.095
 7554WAT     H222685   1.383   3.346   6.127
 7555WAT      O22686   0.489   3.249   6.050
 7555WAT     H122687   0.540   3.188   5.997
 7555WAT     H222688   0.554   3.299   6.099
 7556WAT      O22689   1.340   1.782   5.995
 7556WAT     H122690   1.384   1.777   5.910
 7556WAT     H222691   1.313   1.874   6.002
 7557WAT      O22692   1.526   1.745   5.796
 7557WAT     H122693   1.520   1.651   5.781
 7557WAT     H222694   1.604   1.756   5.851
 7558WAT      O22695   0.673   1.954   5.742
 7558WAT     H122696   0.592   1.916   5.708
 7558WAT     H222697   0.723   1.878   5.772
 7559WAT      O22698   1.123   1.620   5.866
 7559WAT     H122699   1.183   1.677   5.913
 7559WAT     H222700   1.049   1.677   5.843
 7560WAT      O22701   1.437   1.660   5.393
 7560WAT     H122702   1.457   1.750   5.420
 7560WAT     H222703   1.359   1.637   5.442
 7561WAT      O22704   0.256   1.795   5.297
 7561WAT     H122705   0.309   1.716   5.284
 7561WAT     H222706   0.319   1.863   5.320
 7562WAT      O22707   0.475   1.769   5.602
 7562WAT     H122708   0.412   1.699   5.619
 7562WAT     H222709   0.421   1.845   5.581
 7563WAT      O22710   1.593   3.384   5.569
 7563WAT     H122711   1.610   3.316   5.505
 7563WAT     H222712   1.523   3.437   5.530
 7564WAT      O22713   0.377   3.423   5.324
 7564WAT     H122714   0.450   3.395   5.270
 7564WAT     H222715   0.403   3.400   5.413
 7565WAT      O22716   0.293   3.035   5.325
 7565WAT     H122717   0.230   3.082   5.380
 7565WAT     H222718   0.305   2.951   5.368
 7566WAT      O22719   1.039   2.440   3.940
 7566WAT     H122720   1.031   2.349   3.913
 7566WAT     H222721   0.997   2.490   3.869
 7567WAT      O22722   0.852   2.618   4.128
 7567WAT     H122723   0.774   2.570   4.157
 7567WAT     H222724   0.917   2.550   4.111
 7568WAT      O22725   1.254   3.059   4.006
 7568WAT     H122726   1.208   2.981   4.039
 7568WAT     H222727   1.335   3.061   4.057
 7569WAT      O22728   0.252   3.053   4.235
 7569WAT     H122729   0.282   2.964   4.217
 7569WAT     H222730   0.326   3.108   4.213
 7570WAT      O22731   0.877   3.287   3.968
 7570WAT     H122732   0.815   3.333   3.911
 7570WAT     H222733   0.962   3.303   3.928
 7571WAT      O22734   0.796   2.886   4.129
 7571WAT     H122735   0.789   2.791   4.113
 7571WAT     H222736   0.872   2.895   4.186
 7572WAT      O22737   0.899   2.166   4.151
 7572WAT     H122738   0.937   2.079   4.140
 7572WAT     H222739   0.889   2.200   4.062
 7573WAT      O22740   0.312   2.003   3.698
 7573WAT     H122741   0.323   2.094   3.728
 7573WAT     H222742   0.221   1.999   3.669
 7574WAT      O22743   1.277   1.916   3.845
 7574WAT     H122744   1.359   1.867   3.849
 7574WAT     H222745   1.281   1.975   3.920
 7575WAT      O22746   0.496   2.300   4.131
 7575WAT     H122747   0.547   2.350   4.195
 7575WAT     H222748   0.549   2.223   4.113
 7576WAT      O22749   1.706   2.117   4.501
 7576WAT     H122750   1.636   2.156   4.449
 7576WAT     H222751   1.733   2.187   4.561
 7577WAT      O22752   0.324   1.764   4.557
 7577WAT     H122753   0.325   1.816   4.477
 7577WAT     H222754   0.242   1.717   4.555
 7578WAT      O22755   0.963   2.776   3.707
 7578WAT     H122756   0.901   2.822   3.651
 7578WAT     H222757   1.014   2.845   3.749
 7579WAT      O22758   0.449   2.728   4.375
 7579WAT     H122759   0.416   2.791   4.439
 7579WAT     H222760   0.467   2.781   4.297
 7580WAT      O22761   1.301   2.110   4.122
 7580WAT     H122762   1.230   2.139   4.180
 7580WAT     H222763   1.337   2.191   4.086
 7581WAT      O22764   0.293   1.935   4.358
 7581WAT     H122765   0.327   2.020   4.329
 7581WAT     H222766   0.199   1.950   4.370
 7582WAT      O22767   0.371   2.925   4.557
 7582WAT     H122768   0.432   2.993   4.529
 7582WAT     H222769   0.285   2.966   4.548
 7583WAT      O22770   1.462   3.071   4.348
 7583WAT     H122771   1.394   3.138   4.347
 7583WAT     H222772   1.516   3.091   4.272
 7584WAT      O22773   1.608   2.054   4.161
 7584WAT     H122774   1.513   2.058   4.174
 7584WAT     H222775   1.640   2.136   4.200
 7585WAT      O22776   0.661   1.684   3.991
 7585WAT     H122777   0.692   1.629   3.919
 7585WAT     H222778   0.568   1.698   3.972
 7586WAT      O22779   1.216   3.256   4.220
 7586WAT     H122780   1.217   3.216   4.133
 7586WAT     H222781   1.161   3.333   4.209
 7587WAT      O22782   1.346   2.928   3.729
 7587WAT     H122783   1.334   2.834   3.741
 7587WAT     H222784   1.345   2.964   3.817
 7588WAT      O22785   1.156   2.746   4.352
 7588WAT     H122786   1.198   2.725   4.269
 7588WAT     H222787   1.228   2.772   4.410
 7589WAT      O22788   0.900   2.491   3.664
 7589WAT     H122789   0.807   2.484   3.687
 7589WAT     H222790   0.915   2.585   3.653
 7590WAT      O22791   0.898   2.118   3.364
 7590WAT     H122792   0.804   2.134   3.372
 7590WAT     H222793   0.930   2.190   3.309
 7591WAT      O22794   1.551   2.586   4.362
 7591WAT     H122795   1.468   2.593   4.314
 7591WAT     H222796   1.610   2.645   4.315
 7592WAT      O22797   1.303   2.647   3.715
 7592WAT     H122798   1.241   2.613   3.650
 7592WAT     H222799   1.301   2.583   3.785
 7593WAT      O22800   1.247   2.265   4.456
 7593WAT     H122801   1.206   2.347   4.482
 7593WAT     H222802   1.174   2.206   4.437
 7594WAT      O22803   0.460   2.543   3.942
 7594WAT     H122804   0.420   2.472   3.893
 7594WAT     H222805   0.469   2.509   4.031
 7595WAT      O22806   0.507   2.912   4.159
 7595WAT     H122807   0.477   2.852   4.091
 7595WAT     H222808   0.602   2.916   4.148
 7596WAT      O22809   0.332   2.221   4.320
 7596WAT     H122810   0.387   2.232   4.243
 7596WAT     H222811   0.383   2.258   4.392
 7597WAT      O22812   1.316   3.269   4.525
 7597WAT     H122813   1.268   3.350   4.506
 7597WAT     H222814   1.248   3.204   4.540
 7598WAT      O22815   0.416   2.886   4.824
 7598WAT     H122816   0.327   2.908   4.849
 7598WAT     H222817   0.419   2.898   4.729
 7599WAT      O22818   1.120   2.571   3.415
 7599WAT     H122819   1.164   2.487   3.401
 7599WAT     H222820   1.192   2.634   3.424
 7600WAT      O22821   0.299   2.573   4.681
 7600WAT     H122822   0.285   2.660   4.718
 7600WAT     H222823   0.211   2.539   4.667
 7601WAT      O22824   0.931   3.065   3.812
 7601WAT     H122825   0.975   3.139   3.771
 7601WAT     H222826   0.925   3.089   3.904
 7602WAT      O22827   0.479   3.167   4.902
 7602WAT     H122828   0.476   3.208   4.816
 7602WAT     H222829   0.462   3.074   4.886
 7603WAT      O22830   1.479   1.696   3.247
 7603WAT     H122831   1.447   1.705   3.337
 7603WAT     H222832   1.555   1.754   3.242
 7604WAT      O22833   1.674   3.245   5.032
 7604WAT     H122834   1.722   3.293   5.100
 7604WAT     H222835   1.736   3.239   4.959
 7605WAT      O22836   1.614   2.965   4.748
 7605WAT     H122837   1.627   2.941   4.656
 7605WAT     H222838   1.618   2.881   4.795
 7606WAT      O22839   1.000   3.335   4.605
 7606WAT     H122840   1.052   3.326   4.685
 7606WAT     H222841   0.916   3.369   4.634
 7607WAT      O22842   1.198   3.363   3.548
 7607WAT     H122843   1.182   3.334   3.638
 7607WAT     H222844   1.181   3.286   3.494
 7608WAT      O22845   0.446   3.341   3.725
 7608WAT     H122846   0.428   3.250   3.704
 7608WAT     H222847   0.360   3.377   3.749
 7609WAT      O22848   1.168   3.114   3.404
 7609WAT     H122849   1.099   3.114   3.338
 7609WAT     H222850   1.242   3.072   3.361
 7610WAT      O22851   1.125   3.277   3.811
 7610WAT     H122852   1.170   3.199   3.843
 7610WAT     H222853   1.159   3.348   3.866
 7611WAT      O22854   1.600   2.170   4.844
 7611WAT     H122855   1.538   2.221   4.792
 7611WAT     H222856   1.567   2.080   4.839
 7612WAT      O22857   0.377   1.767   4.031
 7612WAT     H122858   0.333   1.845   3.998
 7612WAT     H222859   0.433   1.799   4.101
 7613WAT      O22860   0.806   2.054   4.591
 7613WAT     H122861   0.759   2.075   4.672
 7613WAT     H222862   0.765   1.972   4.561
 7614WAT      O22863   1.306   2.176   4.704
 7614WAT     H122864   1.221   2.146   4.736
 7614WAT     H222865   1.290   2.200   4.613
 7615WAT      O22866   1.015   2.326   4.914
 7615WAT     H122867   1.048   2.243   4.880
 7615WAT     H222868   1.094   2.378   4.929
 7616WAT      O22869   0.689   1.729   3.519
 7616WAT     H122870   0.626   1.729   3.591
 7616WAT     H222871   0.680   1.643   3.479
 7617WAT      O22872   0.581   1.822   4.217
 7617WAT     H122873   0.610   1.912   4.209
 7617WAT     H222874   0.636   1.773   4.155
 7618WAT      O22875   0.356   2.280   3.804
 7618WAT     H122876   0.334   2.258   3.894
 7618WAT     H222877   0.278   2.323   3.769
 7619WAT      O22878   1.079   2.280   3.663
 7619WAT     H122879   1.019   2.353   3.645
 7619WAT     H222880   1.134   2.274   3.585
 7620WAT      O22881   0.600   2.369   4.870
 7620WAT     H122882   0.591   2.275   4.855
 7620WAT     H222883   0.684   2.392   4.831
 7621WAT      O22884   0.940   2.144   3.866
 7621WAT     H122885   0.979   2.175   3.785
 7621WAT     H222886   0.976   2.056   3.878
 7622WAT      O22887   0.771   2.019   4.992
 7622WAT     H122888   0.702   2.000   5.056
 7622WAT     H222889   0.845   2.047   5.046
 7623WAT      O22890   0.998   2.403   4.276
 7623WAT     H122891   0.925   2.454   4.311
 7623WAT     H222892   0.959   2.321   4.246
 7624WAT      O22893   0.642   2.070   4.116
 7624WAT     H122894   0.642   2.026   4.032
 7624WAT     H222895   0.732   2.103   4.127
 7625WAT      O22896   0.648   2.170   3.416
 7625WAT     H122897   0.660   2.166   3.510
 7625WAT     H222898   0.610   2.257   3.400
 7626WAT      O22899   1.045   1.948   4.217
 7626WAT     H122900   1.046   1.993   4.302
 7626WAT     H222901   1.020   1.858   4.239
 7627WAT      O22902   0.549   2.402   3.355
 7627WAT     H122903   0.493   2.357   3.293
 7627WAT     H222904   0.620   2.437   3.302
 7628WAT      O22905   1.387   1.689   4.801
 7628WAT     H122906   1.420   1.616   4.854
 7628WAT     H222907   1.391   1.658   4.711
 7629WAT      O22908   0.672   2.476   4.291
 7629WAT     H122909   0.709   2.429   4.366
 7629WAT     H222910   0.653   2.564   4.325
 7630WAT      O22911   0.451   2.380   4.523
 7630WAT     H122912   0.421   2.468   4.545
 7630WAT     H222913   0.547   2.386   4.527
 7631WAT      O22914   0.304   2.801   3.583
 7631WAT     H122915   0.227   2.747   3.567
 7631WAT     H222916   0.377   2.749   3.549
 7632WAT      O22917   1.380   2.701   4.162
 7632WAT     H122918   1.452   2.750   4.123
 7632WAT     H222919   1.360   2.633   4.097
 7633WAT      O22920   0.926   1.840   3.576
 7633WAT     H122921   0.845   1.790   3.569
 7633WAT     H222922   0.907   1.924   3.535
 7634WAT      O22923   0.918   2.708   4.751
 7634WAT     H122924   0.911   2.616   4.725
 7634WAT     H222925   0.855   2.718   4.822
 7635WAT      O22926   1.197   2.277   3.406
 7635WAT     H122927   1.286   2.308   3.388
 7635WAT     H222928   1.194   2.190   3.367
 7636WAT      O22929   0.308   2.768   3.946
 7636WAT     H122930   0.360   2.688   3.941
 7636WAT     H222931   0.263   2.762   4.031
 7637WAT      O22932   0.797   2.895   3.474
 7637WAT     H122933   0.831   2.969   3.424
 7637WAT     H222934   0.714   2.926   3.510
 7638WAT      O22935   0.377   2.510   4.926
 7638WAT     H122936   0.347   2.525   4.836
 7638WAT     H222937   0.454   2.454   4.917
 7639WAT      O22938   0.911   2.990   4.726
 7639WAT     H122939   0.913   2.897   4.704
 7639WAT     H222940   0.840   2.999   4.790
 7640WAT      O22941   1.425   2.408   3.353
 7640WAT     H122942   1.416   2.452   3.268
 7640WAT     H222943   1.496   2.454   3.396
 7641WAT      O22944   1.532   2.654   4.660
 7641WAT     H122945   1.460   2.713   4.641
 7641WAT     H222946   1.585   2.653   4.580
 7642WAT      O22947   1.527   3.094   3.625
 7642WAT     H122948   1.463   3.028   3.653
 7642WAT     H222949   1.489   3.134   3.548
 7643WAT      O22950   1.085   2.827   4.010
 7643WAT     H122951   1.121   2.767   3.944
 7643WAT     H222952   0.997   2.794   4.027
 7644WAT      O22953   0.694   2.903   3.751
 7644WAT     H122954   0.763   2.957   3.789
 7644WAT     H222955   0.615   2.957   3.754
 7645WAT      O22956   0.624   2.603   3.712
 7645WAT     H122957   0.670   2.684   3.735
 7645WAT     H222958   0.589   2.571   3.795
 7646WAT      O22959   0.855   3.154   4.435
 7646WAT     H122960   0.919   3.175   4.503
 7646WAT     H222961   0.891   3.078   4.390
 7647WAT      O22962   0.982   2.955   4.307
 7647WAT     H122963   1.046   2.884   4.318
 7647WAT     H222964   1.034   3.033   4.289
 7648WAT      O22965   1.366   2.983   3.279
 7648WAT     H122966   1.344   2.911   3.338
 7648WAT     H222967   1.327   2.958   3.195
 7649WAT      O22968   1.159   3.034   4.627
 7649WAT     H122969   1.193   3.093   4.695
 7649WAT     H222970   1.067   3.021   4.650
 7650WAT      O22971   1.325   2.775   3.445
 7650WAT     H122972   1.296   2.821   3.524
 7650WAT     H222973   1.404   2.729   3.472
 7651WAT      O22974   0.742   3.039   4.944
 7651WAT     H122975   0.710   2.967   4.999
 7651WAT     H222976   0.675   3.107   4.951
 7652WAT      O22977   0.546   3.124   3.438
 7652WAT     H122978   0.545   3.197   3.377
 7652WAT     H222979   0.454   3.099   3.448
 7653WAT      O22980   1.064   2.063   4.480
 7653WAT     H122981   1.100   1.981   4.513
 7653WAT     H222982   0.978   2.069   4.522
 7654WAT      O22983   1.400   1.958   3.561
 7654WAT     H122984   1.337   1.969   3.490
 7654WAT     H222985   1.351   1.980   3.640
 7655WAT      O22986   0.845   3.130   3.305
 7655WAT     H122987   0.855   3.110   3.212
 7655WAT     H222988   0.755   3.105   3.325
 7656WAT      O22989   0.597   2.186   3.703
 7656WAT     H122990   0.526   2.233   3.747
 7656WAT     H222991   0.626   2.120   3.766
 7657WAT      O22992   0.760   2.328   4.503
 7657WAT     H122993   0.810   2.376   4.569
 7657WAT     H222994   0.774   2.236   4.524
 7658WAT      O22995   1.000   1.859   3.847
 7658WAT     H122996   0.988   1.860   3.752
 7658WAT     H222997   1.095   1.863   3.859
 7659WAT      O22998   0.709   3.382   3.774
 7659WAT     H122999   0.734   3.378   3.682
 7659WAT     H223000   0.614   3.369   3.773
 7660WAT      O23001   0.417   2.017   3.440
 7660WAT     H123002   0.502   2.061   3.434
 7660WAT     H223003   0.381   2.048   3.523
 7661WAT      O23004   1.480   1.950   4.587
 7661WAT     H123005   1.430   2.024   4.621
 7661WAT     H223006   1.562   1.989   4.555
 7662WAT      O23007   1.310   2.474   3.932
 7662WAT     H123008   1.215   2.476   3.949
 7662WAT     H223009   1.341   2.395   3.976
 7663WAT      O23010   0.307   2.642   3.288
 7663WAT     H123011   0.384   2.631   3.344
 7663WAT     H223012   0.315   2.573   3.223
 7664WAT      O23013   0.177   2.386   3.356
 7664WAT     H123014   0.185   2.291   3.367
 7664WAT     H223015   0.266   2.419   3.367
 7665WAT      O23016   1.510   3.191   4.099
 7665WAT     H123017   1.522   3.273   4.146
 7665WAT     H223018   1.596   3.170   4.064
 7666WAT      O23019   0.257   3.400   4.066
 7666WAT     H123020   0.331   3.346   4.093
 7666WAT     H223021   0.295   3.487   4.052
 7667WAT      O23022   0.568   3.318   3.249
 7667WAT     H123023   0.647   3.347   3.203
 7667WAT     H223024   0.516   3.275   3.181
 7668WAT      O23025   1.041   2.930   4.980
 7668WAT     H123026   0.981   2.932   4.906
 7668WAT     H223027   1.011   2.857   5.034
 7669WAT      O23028   1.184   3.303   4.841
 7669WAT     H123029   1.279   3.294   4.836
 7669WAT     H223030   1.169   3.369   4.908
 7670WAT      O23031   1.473   3.240   3.391
 7670WAT     H123032   1.445   3.199   3.310
 7670WAT     H223033   1.453   3.333   3.379
 7671WAT      O23034   0.620   2.840   3.235
 7671WAT     H123035   0.609   2.778   3.308
 7671WAT     H223036   0.603   2.787   3.157
 7672WAT      O23037   0.635   2.708   4.833
 7672WAT     H123038   0.558   2.765   4.825
 7672WAT     H223039   0.653   2.679   4.744
 7673WAT      O23040   0.944   2.746   3.296
 7673WAT     H123041   0.889   2.791   3.360
 7673WAT     H223042   1.006   2.696   3.348
 7674WAT      O23043   1.349   2.881   4.889
 7674WAT     H123044   1.423   2.915   4.838
 7674WAT     H223045   1.273   2.898   4.833
 7675WAT      O23046   0.511   2.642   3.485
 7675WAT     H123047   0.553   2.625   3.569
 7675WAT     H223048   0.523   2.561   3.436
 7676WAT      O23049   0.327   2.240   4.766
 7676WAT     H123050   0.274   2.191   4.703
 7676WAT     H223051   0.394   2.283   4.712
 7677WAT      O23052   0.762   2.544   3.210
 7677WAT     H123053   0.814   2.473   3.173
 7677WAT     H223054   0.827   2.608   3.240
 7678WAT      O23055   1.217   2.687   4.742
 7678WAT     H123056   1.258   2.702   4.827
 7678WAT     H223057   1.123   2.699   4.759
 7679WAT      O23058   1.264   2.421   4.943
 7679WAT     H123059   1.322   2.345   4.934
 7679WAT     H223060   1.281   2.474   4.865
 7680WAT      O23061   0.376   1.937   4.774
 7680WAT     H123062   0.366   1.875   4.701
 7680WAT     H223063   0.318   2.009   4.751
 7681WAT      O23064   0.652   1.792   4.477
 7681WAT     H123065   0.607   1.794   4.393
 7681WAT     H223066   0.589   1.752   4.537
 7682WAT      O23067   0.693   2.682   4.539
 7682WAT     H123068   0.735   2.766   4.522
 7682WAT     H223069   0.601   2.696   4.516
 7683WAT      O23070   0.926   2.455   4.678
 7683WAT     H123071   0.938   2.395   4.752
 7683WAT     H223072   1.012   2.459   4.636
 7684WAT      O23073   1.160   2.510   4.535
 7684WAT     H123074   1.108   2.563   4.475
 7684WAT     H223075   1.195   2.574   4.598
 7685WAT      O23076   0.400   2.249   3.180
 7685WAT     H123077   0.380   2.163   3.216
 7685WAT     H223078   0.383   2.241   3.086
 7686WAT      O23079   0.478   3.312   4.651
 7686WAT     H123080   0.424   3.385   4.619
 7686WAT     H223081   0.503   3.265   4.572
 7687WAT      O23082   0.603   2.109   4.803
 7687WAT     H123083   0.662   2.078   4.872
 7687WAT     H223084   0.521   2.062   4.819
 7688WAT      O23085   1.085   2.071   4.827
 7688WAT     H123086   1.016   2.005   4.820
 7688WAT     H223087   1.157   2.026   4.871
 7689WAT      O23088   1.148   1.730   3.433
 7689WAT     H123089   1.176   1.646   3.468
 7689WAT     H223090   1.071   1.754   3.484
 7690WAT      O23091   0.280   1.959   3.179
 7690WAT     H123092   0.310   1.960   3.088
 7690WAT     H223093   0.354   1.924   3.228
 7691WAT      O23094   0.763   3.436   4.677
 7691WAT     H123095   0.756   3.526   4.707
 7691WAT     H223096   0.673   3.404   4.674
 7692WAT      O23097   0.602   1.854   3.277
 7692WAT     H123098   0.567   1.786   3.219
 7692WAT     H223099   0.622   1.807   3.359
 7693WAT      O23100   0.818   3.352   3.439
 7693WAT     H123101   0.908   3.386   3.441
 7693WAT     H223102   0.821   3.280   3.376
 7694WAT      O23103   0.182   2.890   3.262
 7694WAT     H123104   0.226   2.944   3.327
 7694WAT     H223105   0.231   2.807   3.263
 7695WAT      O23106   0.363   3.002   3.773
 7695WAT     H123107   0.333   2.989   3.863
 7695WAT     H223108   0.353   2.916   3.732
 7696WAT      O23109   1.516   3.205   4.710
 7696WAT     H123110   1.456   3.211   4.635
 7696WAT     H223111   1.529   3.111   4.723
 7697WAT      O23112   1.640   2.980   3.243
 7697WAT     H123113   1.557   2.986   3.290
 7697WAT     H223114   1.658   3.069   3.213
 7698WAT      O23115   1.586   2.654   3.494
 7698WAT     H123116   1.662   2.711   3.504
 7698WAT     H223117   1.587   2.597   3.571
 7699WAT      O23118   1.686   2.740   3.978
 7699WAT     H123119   1.724   2.661   3.937
 7699WAT     H223120   1.750   2.808   3.960
 7700WAT      O23121   1.385   2.878   4.519
 7700WAT     H123122   1.303   2.921   4.546
 7700WAT     H223123   1.426   2.939   4.458
 7701WAT      O23124   1.591   2.683   3.209
 7701WAT     H123125   1.619   2.774   3.197
 7701WAT     H223126   1.572   2.677   3.303
 7702WAT      O23127   1.231   1.986   3.339
 7702WAT     H123128   1.273   1.967   3.255
 7702WAT     H223129   1.200   1.901   3.370
 7703WAT      O23130   1.581   2.477   3.709
 7703WAT     H123131   1.543   2.400   3.665
 7703WAT     H223132   1.508   2.515   3.757
 7704WAT      O23133   1.520   2.392   4.672
 7704WAT     H123134   1.497   2.369   4.582
 7704WAT     H223135   1.546   2.484   4.668
 7705WAT      O23136   1.364   1.914   4.950
 7705WAT     H123137   1.451   1.915   4.988
 7705WAT     H223138   1.365   1.841   4.889
 7706WAT      O23139   1.508   2.300   4.039
 7706WAT     H123140   1.561   2.250   3.976
 7706WAT     H223141   1.567   2.313   4.113
 7707WAT      O23142   1.526   2.308   4.391
 7707WAT     H123143   1.431   2.305   4.402
 7707WAT     H223144   1.544   2.399   4.367
 7708WAT      O23145   1.457   2.225   3.633
 7708WAT     H123146   1.507   2.202   3.711
 7708WAT     H223147   1.437   2.142   3.591
 7709WAT      O23148   1.600   2.089   3.886
 7709WAT     H123149   1.589   2.074   3.980
 7709WAT     H223150   1.676   2.036   3.862
 7710WAT      O23151   1.435   1.683   4.532
 7710WAT     H123152   1.498   1.744   4.568
 7710WAT     H223153   1.449   1.687   4.437
 7711WAT      O23154   1.689   1.872   3.210
 7711WAT     H123155   1.781   1.859   3.189
 7711WAT     H223156   1.687   1.880   3.305
 7712WAT      O23157   1.696   1.949   3.473
 7712WAT     H123158   1.617   1.943   3.526
 7712WAT     H223159   1.717   2.043   3.472
 7713WAT      O23160   1.391   3.353   3.872
 7713WAT     H123161   1.450   3.321   3.804
 7713WAT     H223162   1.416   3.306   3.951
 7714WAT      O23163   0.181   2.996   4.887
 7714WAT     H123164   0.177   2.959   4.975
 7714WAT     H223165   0.194   3.090   4.901
 7715WAT      O23166   0.551   3.152   4.447
 7715WAT     H123167   0.527   3.179   4.358
 7715WAT     H223168   0.645   3.169   4.453
 7716WAT      O23169   0.772   1.798   4.823
 7716WAT     H123170   0.766   1.857   4.898
 7716WAT     H223171   0.866   1.788   4.808
 7717WAT      O23172   1.036   1.764   4.787
 7717WAT     H123173   1.097   1.796   4.720
 7717WAT     H223174   1.090   1.715   4.849
 7718WAT      O23175   1.677   3.354   4.527
 7718WAT     H123176   1.628   3.394   4.455
 7718WAT     H223177   1.616   3.291   4.567
 7719WAT      O23178   1.110   1.620   4.419
 7719WAT     H123179   1.022   1.654   4.399
 7719WAT     H223180   1.099   1.573   4.502
 7720WAT      O23181   1.200   1.841   4.558
 7720WAT     H123182   1.167   1.760   4.520
 7720WAT     H223183   1.295   1.837   4.545
 7721WAT      O23184   1.446   3.418   4.255
 7721WAT     H123185   1.400   3.493   4.218
 7721WAT     H223186   1.383   3.346   4.249
 7722WAT      O23187   0.489   3.249   4.173
 7722WAT     H123188   0.540   3.188   4.120
 7722WAT     H223189   0.554   3.299   4.222
 7723WAT      O23190   0.763   3.338   4.255
 7723WAT     H123191   0.791   3.313   4.168
 7723WAT     H223192   0.814   3.283   4.314
 7724WAT      O23193   0.884   1.712   4.313
 7724WAT     H123194   0.806   1.759   4.341
 7724WAT     H223195   0.855   1.622   4.302
 7725WAT      O23196   1.340   1.782   4.118
 7725WAT     H123197   1.384   1.777   4.033
 7725WAT     H223198   1.313   1.874   4.125
 7726WAT      O23199   1.526   1.745   3.919
 7726WAT     H123200   1.520   1.651   3.904
 7726WAT     H223201   1.604   1.756   3.973
 7727WAT      O23202   0.673   1.954   3.864
 7727WAT     H123203   0.592   1.916   3.830
 7727WAT     H223204   0.723   1.878   3.895
 7728WAT      O23205   1.123   1.620   3.988
 7728WAT     H123206   1.183   1.677   4.036
 7728WAT     H223207   1.049   1.677   3.966
 7729WAT      O23208   1.437   1.660   3.516
 7729WAT     H123209   1.457   1.750   3.542
 7729WAT     H223210   1.359   1.637   3.565
 7730WAT      O23211   0.256   1.795   3.419
 7730WAT     H123212   0.309   1.716   3.406
 7730WAT     H223213   0.319   1.863   3.443
 7731WAT      O23214   0.475   1.769   3.725
 7731WAT     H123215   0.412   1.699   3.741
 7731WAT     H223216   0.421   1.845   3.703
 7732WAT      O23217   0.769   3.430   4.992
 7732WAT     H123218   0.862   3.407   4.996
 7732WAT     H223219   0.768   3.513   4.944
 7733WAT      O23220   1.593   3.384   3.692
 7733WAT     H123221   1.610   3.316   3.627
 7733WAT     H223222   1.523   3.437   3.652
 7734WAT      O23223   0.488   1.697   4.968
 7734WAT     H123224   0.460   1.747   4.892
 7734WAT     H223225   0.526   1.617   4.932
 7735WAT      O23226   0.377   3.423   3.447
 7735WAT     H123227   0.450   3.395   3.392
 7735WAT     H223228   0.403   3.400   3.536
 7736WAT      O23229   0.293   3.035   3.447
 7736WAT     H123230   0.230   3.082   3.502
 7736WAT     H223231   0.305   2.951   3.491
 7737WAT      O23232   1.148   1.638   5.026
 7737WAT     H123233   1.137   1.670   5.116
 7737WAT     H223234   1.230   1.678   4.996
 7738WAT      O23235   1.426   3.353   4.974
 7738WAT     H123236   1.505   3.303   4.954
 7738WAT     H223237   1.455   3.421   5.035
 7739WAT      O23238   1.039   2.440   2.062
 7739WAT     H123239   1.031   2.349   2.035
 7739WAT     H223240   0.997   2.490   1.992
 7740WAT      O23241   0.852   2.618   2.251
 7740WAT     H123242   0.774   2.570   2.280
 7740WAT     H223243   0.917   2.550   2.233
 7741WAT      O23244   1.254   3.059   2.129
 7741WAT     H123245   1.208   2.981   2.161
 7741WAT     H223246   1.335   3.061   2.179
 7742WAT      O23247   0.252   3.053   2.358
 7742WAT     H123248   0.282   2.964   2.340
 7742WAT     H223249   0.326   3.108   2.335
 7743WAT      O23250   0.877   3.287   2.091
 7743WAT     H123251   0.815   3.333   2.034
 7743WAT     H223252   0.962   3.303   2.050
 7744WAT      O23253   0.796   2.886   2.251
 7744WAT     H123254   0.789   2.791   2.235
 7744WAT     H223255   0.872   2.895   2.308
 7745WAT      O23256   0.899   2.166   2.274
 7745WAT     H123257   0.937   2.079   2.263
 7745WAT     H223258   0.889   2.200   2.185
 7746WAT      O23259   0.312   2.003   1.820
 7746WAT     H123260   0.323   2.094   1.851
 7746WAT     H223261   0.221   1.999   1.791
 7747WAT      O23262   1.277   1.916   1.967
 7747WAT     H123263   1.359   1.867   1.971
 7747WAT     H223264   1.281   1.975   2.043
 7748WAT      O23265   0.496   2.300   2.253
 7748WAT     H123266   0.547   2.350   2.317
 7748WAT     H223267   0.549   2.223   2.236
 7749WAT      O23268   1.706   2.117   2.624
 7749WAT     H123269   1.636   2.156   2.572
 7749WAT     H223270   1.733   2.187   2.684
 7750WAT      O23271   0.324   1.764   2.680
 7750WAT     H123272   0.325   1.816   2.599
 7750WAT     H223273   0.242   1.717   2.678
 7751WAT      O23274   0.963   2.776   1.830
 7751WAT     H123275   0.901   2.822   1.774
 7751WAT     H223276   1.014   2.845   1.872
 7752WAT      O23277   0.449   2.728   2.498
 7752WAT     H123278   0.416   2.791   2.562
 7752WAT     H223279   0.467   2.781   2.420
 7753WAT      O23280   1.301   2.110   2.245
 7753WAT     H123281   1.230   2.139   2.303
 7753WAT     H223282   1.337   2.191   2.208
 7754WAT      O23283   0.293   1.935   2.481
 7754WAT     H123284   0.327   2.020   2.451
 7754WAT     H223285   0.199   1.950   2.492
 7755WAT      O23286   0.371   2.925   2.679
 7755WAT     H123287   0.432   2.993   2.651
 7755WAT     H223288   0.285   2.966   2.670
 7756WAT      O23289   1.462   3.071   2.471
 7756WAT     H123290   1.394   3.138   2.470
 7756WAT     H223291   1.516   3.091   2.394
 7757WAT      O23292   1.608   2.054   2.284
 7757WAT     H123293   1.513   2.058   2.297
 7757WAT     H223294   1.640   2.136   2.322
 7758WAT      O23295   0.661   1.684   2.113
 7758WAT     H123296   0.692   1.629   2.042
 7758WAT     H223297   0.568   1.698   2.095
 7759WAT      O23298   1.216   3.256   2.342
 7759WAT     H123299   1.217   3.216   2.255
 7759WAT     H223300   1.161   3.333   2.332
 7760WAT      O23301   1.346   2.928   1.851
 7760WAT     H123302   1.334   2.834   1.864
 7760WAT     H223303   1.345   2.964   1.940
 7761WAT      O23304   1.156   2.746   2.475
 7761WAT     H123305   1.198   2.725   2.392
 7761WAT     H223306   1.228   2.772   2.532
 7762WAT      O23307   0.900   2.491   1.787
 7762WAT     H123308   0.807   2.484   1.810
 7762WAT     H223309   0.915   2.585   1.775
 7763WAT      O23310   0.898   2.118   1.486
 7763WAT     H123311   0.804   2.134   1.495
 7763WAT     H223312   0.930   2.190   1.432
 7764WAT      O23313   1.551   2.586   2.484
 7764WAT     H123314   1.468   2.593   2.437
 7764WAT     H223315   1.610   2.645   2.437
 7765WAT      O23316   1.303   2.647   1.837
 7765WAT     H123317   1.241   2.613   1.772
 7765WAT     H223318   1.301   2.583   1.908
 7766WAT      O23319   1.247   2.265   2.579
 7766WAT     H123320   1.206   2.347   2.604
 7766WAT     H223321   1.174   2.206   2.560
 7767WAT      O23322   0.460   2.543   2.065
 7767WAT     H123323   0.420   2.472   2.015
 7767WAT     H223324   0.469   2.509   2.154
 7768WAT      O23325   0.507   2.912   2.281
 7768WAT     H123326   0.477   2.852   2.213
 7768WAT     H223327   0.602   2.916   2.270
 7769WAT      O23328   0.332   2.221   2.443
 7769WAT     H123329   0.387   2.232   2.365
 7769WAT     H223330   0.383   2.258   2.514
 7770WAT      O23331   1.316   3.269   2.648
 7770WAT     H123332   1.268   3.350   2.628
 7770WAT     H223333   1.248   3.204   2.663
 7771WAT      O23334   0.416   2.886   2.946
 7771WAT     H123335   0.327   2.908   2.971
 7771WAT     H223336   0.419   2.898   2.852
 7772WAT      O23337   1.120   2.571   1.538
 7772WAT     H123338   1.164   2.487   1.523
 7772WAT     H223339   1.192   2.634   1.546
 7773WAT      O23340   0.299   2.573   2.804
 7773WAT     H123341   0.285   2.660   2.841
 7773WAT     H223342   0.211   2.539   2.789
 7774WAT      O23343   0.931   3.065   1.935
 7774WAT     H123344   0.975   3.139   1.893
 7774WAT     H223345   0.925   3.089   2.027
 7775WAT      O23346   0.479   3.167   3.025
 7775WAT     H123347   0.476   3.208   2.938
 7775WAT     H223348   0.462   3.074   3.009
 7776WAT      O23349   1.479   1.696   1.369
 7776WAT     H123350   1.447   1.705   1.459
 7776WAT     H223351   1.555   1.754   1.364
 7777WAT      O23352   1.674   3.245   3.154
 7777WAT     H123353   1.722   3.293   3.222
 7777WAT     H223354   1.736   3.239   3.082
 7778WAT      O23355   1.614   2.965   2.870
 7778WAT     H123356   1.627   2.941   2.779
 7778WAT     H223357   1.618   2.881   2.918
 7779WAT      O23358   1.000   3.335   2.727
 7779WAT     H123359   1.052   3.326   2.808
 7779WAT     H223360   0.916   3.369   2.757
 7780WAT      O23361   1.198   3.363   1.670
 7780WAT     H123362   1.182   3.334   1.760
 7780WAT     H223363   1.181   3.286   1.617
 7781WAT      O23364   0.446   3.341   1.848
 7781WAT     H123365   0.428   3.250   1.827
 7781WAT     H223366   0.360   3.377   1.872
 7782WAT      O23367   1.168   3.114   1.526
 7782WAT     H123368   1.099   3.114   1.460
 7782WAT     H223369   1.242   3.072   1.483
 7783WAT      O23370   1.125   3.277   1.934
 7783WAT     H123371   1.170   3.199   1.965
 7783WAT     H223372   1.159   3.348   1.988
 7784WAT      O23373   1.600   2.170   2.967
 7784WAT     H123374   1.538   2.221   2.914
 7784WAT     H223375   1.567   2.080   2.961
 7785WAT      O23376   0.377   1.767   2.153
 7785WAT     H123377   0.333   1.845   2.120
 7785WAT     H223378   0.433   1.799   2.224
 7786WAT      O23379   0.806   2.054   2.714
 7786WAT     H123380   0.759   2.075   2.795
 7786WAT     H223381   0.765   1.972   2.683
 7787WAT      O23382   1.306   2.176   2.827
 7787WAT     H123383   1.221   2.146   2.859
 7787WAT     H223384   1.290   2.200   2.735
 7788WAT      O23385   1.015   2.326   3.037
 7788WAT     H123386   1.048   2.243   3.003
 7788WAT     H223387   1.094   2.378   3.051
 7789WAT      O23388   0.689   1.729   1.641
 7789WAT     H123389   0.626   1.729   1.714
 7789WAT     H223390   0.680   1.643   1.602
 7790WAT      O23391   0.581   1.822   2.339
 7790WAT     H123392   0.610   1.912   2.331
 7790WAT     H223393   0.636   1.773   2.278
 7791WAT      O23394   0.356   2.280   1.926
 7791WAT     H123395   0.334   2.258   2.017
 7791WAT     H223396   0.278   2.323   1.892
 7792WAT      O23397   1.079   2.280   1.786
 7792WAT     H123398   1.019   2.353   1.768
 7792WAT     H223399   1.134   2.274   1.708
 7793WAT      O23400   0.600   2.369   2.993
 7793WAT     H123401   0.591   2.275   2.978
 7793WAT     H223402   0.684   2.392   2.953
 7794WAT      O23403   0.940   2.144   1.989
 7794WAT     H123404   0.979   2.175   1.908
 7794WAT     H223405   0.976   2.056   2.000
 7795WAT      O23406   0.771   2.019   3.115
 7795WAT     H123407   0.702   2.000   3.178
 7795WAT     H223408   0.845   2.047   3.168
 7796WAT      O23409   0.998   2.403   2.399
 7796WAT     H123410   0.925   2.454   2.433
 7796WAT     H223411   0.959   2.321   2.368
 7797WAT      O23412   0.642   2.070   2.239
 7797WAT     H123413   0.642   2.026   2.154
 7797WAT     H223414   0.732   2.103   2.250
 7798WAT      O23415   0.648   2.170   1.538
 7798WAT     H123416   0.660   2.166   1.633
 7798WAT     H223417   0.610   2.257   1.523
 7799WAT      O23418   1.045   1.948   2.340
 7799WAT     H123419   1.046   1.993   2.424
 7799WAT     H223420   1.020   1.858   2.361
 7800WAT      O23421   0.549   2.402   1.478
 7800WAT     H123422   0.493   2.357   1.415
 7800WAT     H223423   0.620   2.437   1.425
 7801WAT      O23424   1.387   1.689   2.924
 7801WAT     H123425   1.420   1.616   2.976
 7801WAT     H223426   1.391   1.658   2.833
 7802WAT      O23427   0.672   2.476   2.414
 7802WAT     H123428   0.709   2.429   2.488
 7802WAT     H223429   0.653   2.564   2.448
 7803WAT      O23430   0.451   2.380   2.646
 7803WAT     H123431   0.421   2.468   2.668
 7803WAT     H223432   0.547   2.386   2.649
 7804WAT      O23433   0.304   2.801   1.705
 7804WAT     H123434   0.227   2.747   1.689
 7804WAT     H223435   0.377   2.749   1.671
 7805WAT      O23436   1.380   2.701   2.284
 7805WAT     H123437   1.452   2.750   2.245
 7805WAT     H223438   1.360   2.633   2.220
 7806WAT      O23439   0.926   1.840   1.699
 7806WAT     H123440   0.845   1.790   1.691
 7806WAT     H223441   0.907   1.924   1.657
 7807WAT      O23442   0.918   2.708   2.873
 7807WAT     H123443   0.911   2.616   2.848
 7807WAT     H223444   0.855   2.718   2.945
 7808WAT      O23445   1.197   2.277   1.528
 7808WAT     H123446   1.286   2.308   1.511
 7808WAT     H223447   1.194   2.190   1.489
 7809WAT      O23448   0.308   2.768   2.069
 7809WAT     H123449   0.360   2.688   2.064
 7809WAT     H223450   0.263   2.762   2.153
 7810WAT      O23451   0.797   2.895   1.596
 7810WAT     H123452   0.831   2.969   1.547
 7810WAT     H223453   0.714   2.926   1.633
 7811WAT      O23454   0.377   2.510   3.049
 7811WAT     H123455   0.347   2.525   2.959
 7811WAT     H223456   0.454   2.454   3.039
 7812WAT      O23457   0.911   2.990   2.848
 7812WAT     H123458   0.913   2.897   2.826
 7812WAT     H223459   0.840   2.999   2.912
 7813WAT      O23460   1.425   2.408   1.475
 7813WAT     H123461   1.416   2.452   1.390
 7813WAT     H223462   1.496   2.454   1.518
 7814WAT      O23463   1.532   2.654   2.783
 7814WAT     H123464   1.460   2.713   2.763
 7814WAT     H223465   1.585   2.653   2.703
 7815WAT      O23466   1.527   3.094   1.748
 7815WAT     H123467   1.463   3.028   1.775
 7815WAT     H223468   1.489   3.134   1.670
 7816WAT      O23469   1.085   2.827   2.133
 7816WAT     H123470   1.121   2.767   2.067
 7816WAT     H223471   0.997   2.794   2.150
 7817WAT      O23472   0.694   2.903   1.873
 7817WAT     H123473   0.763   2.957   1.912
 7817WAT     H223474   0.615   2.957   1.877
 7818WAT      O23475   0.624   2.603   1.835
 7818WAT     H123476   0.670   2.684   1.857
 7818WAT     H223477   0.589   2.571   1.918
 7819WAT      O23478   0.855   3.154   2.558
 7819WAT     H123479   0.919   3.175   2.625
 7819WAT     H223480   0.891   3.078   2.512
 7820WAT      O23481   0.982   2.955   2.429
 7820WAT     H123482   1.046   2.884   2.441
 7820WAT     H223483   1.034   3.033   2.411
 7821WAT      O23484   1.366   2.983   1.402
 7821WAT     H123485   1.344   2.911   1.461
 7821WAT     H223486   1.327   2.958   1.318
 7822WAT      O23487   1.159   3.034   2.750
 7822WAT     H123488   1.193   3.093   2.818
 7822WAT     H223489   1.067   3.021   2.773
 7823WAT      O23490   1.325   2.775   1.568
 7823WAT     H123491   1.296   2.821   1.647
 7823WAT     H223492   1.404   2.729   1.595
 7824WAT      O23493   0.742   3.039   3.067
 7824WAT     H123494   0.710   2.967   3.121
 7824WAT     H223495   0.675   3.107   3.074
 7825WAT      O23496   0.546   3.124   1.561
 7825WAT     H123497   0.545   3.197   1.499
 7825WAT     H223498   0.454   3.099   1.570
 7826WAT      O23499   1.064   2.063   2.603
 7826WAT     H123500   1.100   1.981   2.636
 7826WAT     H223501   0.978   2.069   2.645
 7827WAT      O23502   1.400   1.958   1.684
 7827WAT     H123503   1.337   1.969   1.612
 7827WAT     H223504   1.351   1.980   1.763
 7828WAT      O23505   0.845   3.130   1.427
 7828WAT     H123506   0.855   3.110   1.334
 7828WAT     H223507   0.755   3.105   1.448
 7829WAT      O23508   0.597   2.186   1.825
 7829WAT     H123509   0.526   2.233   1.870
 7829WAT     H223510   0.626   2.120   1.889
 7830WAT      O23511   0.760   2.328   2.625
 7830WAT     H123512   0.810   2.376   2.692
 7830WAT     H223513   0.774   2.236   2.646
 7831WAT      O23514   1.000   1.859   1.969
 7831WAT     H123515   0.988   1.860   1.874
 7831WAT     H223516   1.095   1.863   1.981
 7832WAT      O23517   0.709   3.382   1.897
 7832WAT     H123518   0.734   3.378   1.804
 7832WAT     H223519   0.614   3.369   1.896
 7833WAT      O23520   0.417   2.017   1.563
 7833WAT     H123521   0.502   2.061   1.556
 7833WAT     H223522   0.381   2.048   1.646
 7834WAT      O23523   1.480   1.950   2.710
 7834WAT     H123524   1.430   2.024   2.744
 7834WAT     H223525   1.562   1.989   2.678
 7835WAT      O23526   1.310   2.474   2.054
 7835WAT     H123527   1.215   2.476   2.072
 7835WAT     H223528   1.341   2.395   2.099
 7836WAT      O23529   0.307   2.642   1.410
 7836WAT     H123530   0.384   2.631   1.467
 7836WAT     H223531   0.315   2.573   1.345
 7837WAT      O23532   0.177   2.386   1.479
 7837WAT     H123533   0.185   2.291   1.490
 7837WAT     H223534   0.266   2.419   1.489
 7838WAT      O23535   1.510   3.191   2.222
 7838WAT     H123536   1.522   3.273   2.269
 7838WAT     H223537   1.596   3.170   2.187
 7839WAT      O23538   0.257   3.400   2.189
 7839WAT     H123539   0.331   3.346   2.216
 7839WAT     H223540   0.295   3.487   2.175
 7840WAT      O23541   0.568   3.318   1.371
 7840WAT     H123542   0.647   3.347   1.326
 7840WAT     H223543   0.516   3.275   1.303
 7841WAT      O23544   1.041   2.930   3.103
 7841WAT     H123545   0.981   2.932   3.029
 7841WAT     H223546   1.011   2.857   3.156
 7842WAT      O23547   1.184   3.303   2.964
 7842WAT     H123548   1.279   3.294   2.959
 7842WAT     H223549   1.169   3.369   3.031
 7843WAT      O23550   1.473   3.240   1.514
 7843WAT     H123551   1.445   3.199   1.432
 7843WAT     H223552   1.453   3.333   1.502
 7844WAT      O23553   0.620   2.840   1.358
 7844WAT     H123554   0.609   2.778   1.430
 7844WAT     H223555   0.603   2.787   1.279
 7845WAT      O23556   0.635   2.708   2.956
 7845WAT     H123557   0.558   2.765   2.947
 7845WAT     H223558   0.653   2.679   2.866
 7846WAT      O23559   0.944   2.746   1.418
 7846WAT     H123560   0.889   2.791   1.483
 7846WAT     H223561   1.006   2.696   1.470
 7847WAT      O23562   1.349   2.881   3.011
 7847WAT     H123563   1.423   2.915   2.961
 7847WAT     H223564   1.273   2.898   2.956
 7848WAT      O23565   0.511   2.642   1.608
 7848WAT     H123566   0.553   2.625   1.692
 7848WAT     H223567   0.523   2.561   1.558
 7849WAT      O23568   0.327   2.240   2.888
 7849WAT     H123569   0.274   2.191   2.826
 7849WAT     H223570   0.394   2.283   2.835
 7850WAT      O23571   0.762   2.544   1.333
 7850WAT     H123572   0.814   2.473   1.296
 7850WAT     H223573   0.827   2.608   1.363
 7851WAT      O23574   1.217   2.687   2.865
 7851WAT     H123575   1.258   2.702   2.950
 7851WAT     H223576   1.123   2.699   2.881
 7852WAT      O23577   1.264   2.421   3.065
 7852WAT     H123578   1.322   2.345   3.056
 7852WAT     H223579   1.281   2.474   2.988
 7853WAT      O23580   0.376   1.937   2.896
 7853WAT     H123581   0.366   1.875   2.824
 7853WAT     H223582   0.318   2.009   2.874
 7854WAT      O23583   0.652   1.792   2.600
 7854WAT     H123584   0.607   1.794   2.515
 7854WAT     H223585   0.589   1.752   2.659
 7855WAT      O23586   0.693   2.682   2.662
 7855WAT     H123587   0.735   2.766   2.645
 7855WAT     H223588   0.601   2.696   2.639
 7856WAT      O23589   0.926   2.455   2.800
 7856WAT     H123590   0.938   2.395   2.874
 7856WAT     H223591   1.012   2.459   2.758
 7857WAT      O23592   1.160   2.510   2.658
 7857WAT     H123593   1.108   2.563   2.597
 7857WAT     H223594   1.195   2.574   2.721
 7858WAT      O23595   0.400   2.249   1.302
 7858WAT     H123596   0.380   2.163   1.338
 7858WAT     H223597   0.383   2.241   1.209
 7859WAT      O23598   0.478   3.312   2.773
 7859WAT     H123599   0.424   3.385   2.741
 7859WAT     H223600   0.503   3.265   2.694
 7860WAT      O23601   0.603   2.109   2.926
 7860WAT     H123602   0.662   2.078   2.995
 7860WAT     H223603   0.521   2.062   2.942
 7861WAT      O23604   1.085   2.071   2.949
 7861WAT     H123605   1.016   2.005   2.943
 7861WAT     H223606   1.157   2.026   2.994
 7862WAT      O23607   1.148   1.730   1.555
 7862WAT     H123608   1.176   1.646   1.591
 7862WAT     H223609   1.071   1.754   1.607
 7863WAT      O23610   0.280   1.959   1.301
 7863WAT     H123611   0.310   1.960   1.210
 7863WAT     H223612   0.354   1.924   1.351
 7864WAT      O23613   0.763   3.436   2.799
 7864WAT     H123614   0.756   3.526   2.830
 7864WAT     H223615   0.673   3.404   2.796
 7865WAT      O23616   0.602   1.854   1.400
 7865WAT     H123617   0.567   1.786   1.342
 7865WAT     H223618   0.622   1.807   1.481
 7866WAT      O23619   0.818   3.352   1.562
 7866WAT     H123620   0.908   3.386   1.564
 7866WAT     H223621   0.821   3.280   1.499
 7867WAT      O23622   0.182   2.890   1.384
 7867WAT     H123623   0.226   2.944   1.450
 7867WAT     H223624   0.231   2.807   1.385
 7868WAT      O23625   0.363   3.002   1.896
 7868WAT     H123626   0.333   2.989   1.986
 7868WAT     H223627   0.353   2.916   1.855
 7869WAT      O23628   1.516   3.205   2.832
 7869WAT     H123629   1.456   3.211   2.758
 7869WAT     H223630   1.529   3.111   2.845
 7870WAT      O23631   1.640   2.980   1.366
 7870WAT     H123632   1.557   2.986   1.413
 7870WAT     H223633   1.658   3.069   1.336
 7871WAT      O23634   1.586   2.654   1.616
 7871WAT     H123635   1.662   2.711   1.627
 7871WAT     H223636   1.587   2.597   1.693
 7872WAT      O23637   1.686   2.740   2.101
 7872WAT     H123638   1.724   2.661   2.060
 7872WAT     H223639   1.750   2.808   2.083
 7873WAT      O23640   1.385   2.878   2.642
 7873WAT     H123641   1.303   2.921   2.668
 7873WAT     H223642   1.426   2.939   2.581
 7874WAT      O23643   1.591   2.683   1.332
 7874WAT     H123644   1.619   2.774   1.319
 7874WAT     H223645   1.572   2.677   1.426
 7875WAT      O23646   1.231   1.986   1.461
 7875WAT     H123647   1.273   1.967   1.377
 7875WAT     H223648   1.200   1.901   1.493
 7876WAT      O23649   1.581   2.477   1.831
 7876WAT     H123650   1.543   2.400   1.788
 7876WAT     H223651   1.508   2.515   1.880
 7877WAT      O23652   1.520   2.392   2.795
 7877WAT     H123653   1.497   2.369   2.705
 7877WAT     H223654   1.546   2.484   2.790
 7878WAT      O23655   1.364   1.914   3.072
 7878WAT     H123656   1.451   1.915   3.111
 7878WAT     H223657   1.365   1.841   3.011
 7879WAT      O23658   1.508   2.300   2.161
 7879WAT     H123659   1.561   2.250   2.098
 7879WAT     H223660   1.567   2.313   2.236
 7880WAT      O23661   1.526   2.308   2.514
 7880WAT     H123662   1.431   2.305   2.525
 7880WAT     H223663   1.544   2.399   2.490
 7881WAT      O23664   1.457   2.225   1.755
 7881WAT     H123665   1.507   2.202   1.834
 7881WAT     H223666   1.437   2.142   1.714
 7882WAT      O23667   1.600   2.089   2.009
 7882WAT     H123668   1.589   2.074   2.102
 7882WAT     H223669   1.676   2.036   1.984
 7883WAT      O23670   1.435   1.683   2.654
 7883WAT     H123671   1.498   1.744   2.691
 7883WAT     H223672   1.449   1.687   2.560
 7884WAT      O23673   1.689   1.872   1.333
 7884WAT     H123674   1.781   1.859   1.312
 7884WAT     H223675   1.687   1.880   1.428
 7885WAT      O23676   1.696   1.949   1.595
 7885WAT     H123677   1.617   1.943   1.648
 7885WAT     H223678   1.717   2.043   1.594
 7886WAT      O23679   1.391   3.353   1.995
 7886WAT     H123680   1.450   3.321   1.927
 7886WAT     H223681   1.416   3.306   2.074
 7887WAT      O23682   0.181   2.996   3.010
 7887WAT     H123683   0.177   2.959   3.098
 7887WAT     H223684   0.194   3.090   3.024
 7888WAT      O23685   0.551   3.152   2.570
 7888WAT     H123686   0.527   3.179   2.481
 7888WAT     H223687   0.645   3.169   2.575
 7889WAT      O23688   0.772   1.798   2.945
 7889WAT     H123689   0.766   1.857   3.020
 7889WAT     H223690   0.866   1.788   2.931
 7890WAT      O23691   1.036   1.764   2.909
 7890WAT     H123692   1.097   1.796   2.843
 7890WAT     H223693   1.090   1.715   2.971
 7891WAT      O23694   1.677   3.354   2.650
 7891WAT     H123695   1.628   3.394   2.578
 7891WAT     H223696   1.616   3.291   2.689
 7892WAT      O23697   1.110   1.620   2.542
 7892WAT     H123698   1.022   1.654   2.522
 7892WAT     H223699   1.099   1.573   2.624
 7893WAT      O23700   1.200   1.841   2.680
 7893WAT     H123701   1.167   1.760   2.642
 7893WAT     H223702   1.295   1.837   2.668
 7894WAT      O23703   1.446   3.418   2.378
 7894WAT     H123704   1.400   3.493   2.340
 7894WAT     H223705   1.383   3.346   2.372
 7895WAT      O23706   0.489   3.249   2.295
 7895WAT     H123707   0.540   3.188   2.243
 7895WAT     H223708   0.554   3.299   2.344
 7896WAT      O23709   0.763   3.338   2.378
 7896WAT     H123710   0.791   3.313   2.290
 7896WAT     H223711   0.814   3.283   2.437
 7897WAT      O23712   0.884   1.712   2.436
 7897WAT     H123713   0.806   1.759   2.464
 7897WAT     H223714   0.855   1.622   2.425
 7898WAT      O23715   1.340   1.782   2.240
 7898WAT     H123716   1.384   1.777   2.155
 7898WAT     H223717   1.313   1.874   2.247
 7899WAT      O23718   1.526   1.745   2.041
 7899WAT     H123719   1.520   1.651   2.027
 7899WAT     H223720   1.604   1.756   2.096
 7900WAT      O23721   0.673   1.954   1.987
 7900WAT     H123722   0.592   1.916   1.953
 7900WAT     H223723   0.723   1.878   2.017
 7901WAT      O23724   1.123   1.620   2.111
 7901WAT     H123725   1.183   1.677   2.158
 7901WAT     H223726   1.049   1.677   2.088
 7902WAT      O23727   1.437   1.660   1.638
 7902WAT     H123728   1.457   1.750   1.665
 7902WAT     H223729   1.359   1.637   1.687
 7903WAT      O23730   0.256   1.795   1.542
 7903WAT     H123731   0.309   1.716   1.529
 7903WAT     H223732   0.319   1.863   1.565
 7904WAT      O23733   0.475   1.769   1.847
 7904WAT     H123734   0.412   1.699   1.864
 7904WAT     H223735   0.421   1.845   1.826
 7905WAT      O23736   0.769   3.430   3.114
 7905WAT     H123737   0.862   3.407   3.119
 7905WAT     H223738   0.768   3.513   3.066
 7906WAT      O23739   1.593   3.384   1.814
 7906WAT     H123740   1.610   3.316   1.750
 7906WAT     H223741   1.523   3.437   1.775
 7907WAT      O23742   0.488   1.697   3.091
 7907WAT     H123743   0.460   1.747   3.014
 7907WAT     H223744   0.526   1.617   3.054
 7908WAT      O23745   0.377   3.423   1.570
 7908WAT     H123746   0.450   3.395   1.515
 7908WAT     H223747   0.403   3.400   1.659
 7909WAT      O23748   0.293   3.035   1.570
 7909WAT     H123749   0.230   3.082   1.625
 7909WAT     H223750   0.305   2.951   1.613
 7910WAT      O23751   1.148   1.638   3.149
 7910WAT     H123752   1.137   1.670   3.238
 7910WAT     H223753   1.230   1.678   3.119
 7911WAT      O23754   1.426   3.353   3.097
 7911WAT     H123755   1.505   3.303   3.076
 7911WAT     H223756   1.455   3.421   3.158
 7912WAT      O23757   0.852   2.618   0.373
 7912WAT     H123758   0.774   2.570   0.402
 7912WAT     H223759   0.917   2.550   0.356
 7913WAT      O23760   1.254   3.059   0.251
 7913WAT     H123761   1.208   2.981   0.284
 7913WAT     H223762   1.335   3.061   0.302
 7914WAT      O23763   0.252   3.053   0.480
 7914WAT     H123764   0.282   2.964   0.463
 7914WAT     H223765   0.326   3.108   0.458
 7915WAT      O23766   0.796   2.886   0.374
 7915WAT     H123767   0.789   2.791   0.358
 7915WAT     H223768   0.872   2.895   0.431
 7916WAT      O23769   0.899   2.166   0.397
 7916WAT     H123770   0.937   2.079   0.385
 7916WAT     H223771   0.889   2.200   0.307
 7917WAT      O23772   0.496   2.300   0.376
 7917WAT     H123773   0.547   2.350   0.440
 7917WAT     H223774   0.549   2.223   0.358
 7918WAT      O23775   1.706   2.117   0.746
 7918WAT     H123776   1.636   2.156   0.694
 7918WAT     H223777   1.733   2.187   0.806
 7919WAT      O23778   0.324   1.764   0.803
 7919WAT     H123779   0.325   1.816   0.722
 7919WAT     H223780   0.242   1.717   0.800
 7920WAT      O23781   0.449   2.728   0.620
 7920WAT     H123782   0.416   2.791   0.685
 7920WAT     H223783   0.467   2.781   0.542
 7921WAT      O23784   1.301   2.110   0.367
 7921WAT     H123785   1.230   2.139   0.425
 7921WAT     H223786   1.337   2.191   0.331
 7922WAT      O23787   0.293   1.935   0.603
 7922WAT     H123788   0.327   2.020   0.574
 7922WAT     H223789   0.199   1.950   0.615
 7923WAT      O23790   0.371   2.925   0.802
 7923WAT     H123791   0.432   2.993   0.774
 7923WAT     H223792   0.285   2.966   0.793
 7924WAT      O23793   1.462   3.071   0.593
 7924WAT     H123794   1.394   3.138   0.593
 7924WAT     H223795   1.516   3.091   0.517
 7925WAT      O23796   1.608   2.054   0.406
 7925WAT     H123797   1.513   2.058   0.419
 7925WAT     H223798   1.640   2.136   0.445
 7926WAT      O23799   1.216   3.256   0.465
 7926WAT     H123800   1.217   3.216   0.378
 7926WAT     H223801   1.161   3.333   0.454
 7927WAT      O23802   1.156   2.746   0.598
 7927WAT     H123803   1.198   2.725   0.514
 7927WAT     H223804   1.228   2.772   0.655
 7928WAT      O23805   1.551   2.586   0.607
 7928WAT     H123806   1.468   2.593   0.559
 7928WAT     H223807   1.610   2.645   0.560
 7929WAT      O23808   1.247   2.265   0.701
 7929WAT     H123809   1.206   2.347   0.727
 7929WAT     H223810   1.174   2.206   0.682
 7930WAT      O23811   0.507   2.912   0.404
 7930WAT     H123812   0.477   2.852   0.336
 7930WAT     H223813   0.602   2.916   0.393
 7931WAT      O23814   0.332   2.221   0.566
 7931WAT     H123815   0.387   2.232   0.488
 7931WAT     H223816   0.383   2.258   0.637
 7932WAT      O23817   1.316   3.269   0.770
 7932WAT     H123818   1.268   3.350   0.751
 7932WAT     H223819   1.248   3.204   0.785
 7933WAT      O23820   0.416   2.886   1.069
 7933WAT     H123821   0.327   2.908   1.094
 7933WAT     H223822   0.419   2.898   0.974
 7934WAT      O23823   0.299   2.573   0.927
 7934WAT     H123824   0.285   2.660   0.963
 7934WAT     H223825   0.211   2.539   0.912
 7935WAT      O23826   0.479   3.167   1.147
 7935WAT     H123827   0.476   3.208   1.061
 7935WAT     H223828   0.462   3.074   1.131
 7936WAT      O23829   1.674   3.245   1.277
 7936WAT     H123830   1.722   3.293   1.345
 7936WAT     H223831   1.736   3.239   1.205
 7937WAT      O23832   1.614   2.965   0.993
 7937WAT     H123833   1.627   2.941   0.901
 7937WAT     H223834   1.618   2.881   1.040
 7938WAT      O23835   1.000   3.335   0.850
 7938WAT     H123836   1.052   3.326   0.930
 7938WAT     H223837   0.916   3.369   0.879
 7939WAT      O23838   1.600   2.170   1.090
 7939WAT     H123839   1.538   2.221   1.037
 7939WAT     H223840   1.567   2.080   1.084
 7940WAT      O23841   0.377   1.767   0.276
 7940WAT     H123842   0.333   1.845   0.243
 7940WAT     H223843   0.433   1.799   0.347
 7941WAT      O23844   0.806   2.054   0.836
 7941WAT     H123845   0.759   2.075   0.917
 7941WAT     H223846   0.765   1.972   0.806
 7942WAT      O23847   1.306   2.176   0.949
 7942WAT     H123848   1.221   2.146   0.981
 7942WAT     H223849   1.290   2.200   0.858
 7943WAT      O23850   1.015   2.326   1.159
 7943WAT     H123851   1.048   2.243   1.125
 7943WAT     H223852   1.094   2.378   1.174
 7944WAT      O23853   0.581   1.822   0.462
 7944WAT     H123854   0.610   1.912   0.454
 7944WAT     H223855   0.636   1.773   0.400
 7945WAT      O23856   0.600   2.369   1.115
 7945WAT     H123857   0.591   2.275   1.100
 7945WAT     H223858   0.684   2.392   1.076
 7946WAT      O23859   0.771   2.019   1.238
 7946WAT     H123860   0.702   2.000   1.301
 7946WAT     H223861   0.845   2.047   1.291
 7947WAT      O23862   0.998   2.403   0.521
 7947WAT     H123863   0.925   2.454   0.556
 7947WAT     H223864   0.959   2.321   0.491
 7948WAT      O23865   0.642   2.070   0.362
 7948WAT     H123866   0.642   2.026   0.277
 7948WAT     H223867   0.732   2.103   0.372
 7949WAT      O23868   1.045   1.948   0.462
 7949WAT     H123869   1.046   1.993   0.547
 7949WAT     H223870   1.020   1.858   0.484
 7950WAT      O23871   1.387   1.689   1.046
 7950WAT     H123872   1.420   1.616   1.099
 7950WAT     H223873   1.391   1.658   0.956
 7951WAT      O23874   0.672   2.476   0.536
 7951WAT     H123875   0.709   2.429   0.611
 7951WAT     H223876   0.653   2.564   0.570
 7952WAT      O23877   0.451   2.380   0.768
 7952WAT     H123878   0.421   2.468   0.791
 7952WAT     H223879   0.547   2.386   0.772
 7953WAT      O23880   1.380   2.701   0.407
 7953WAT     H123881   1.452   2.750   0.368
 7953WAT     H223882   1.360   2.633   0.343
 7954WAT      O23883   0.918   2.708   0.996
 7954WAT     H123884   0.911   2.616   0.970
 7954WAT     H223885   0.855   2.718   1.067
 7955WAT      O23886   0.308   2.768   0.192
 7955WAT     H123887   0.360   2.688   0.186
 7955WAT     H223888   0.263   2.762   0.276
 7956WAT      O23889   0.377   2.510   1.171
 7956WAT     H123890   0.347   2.525   1.081
 7956WAT     H223891   0.454   2.454   1.162
 7957WAT      O23892   0.911   2.990   0.971
 7957WAT     H123893   0.913   2.897   0.949
 7957WAT     H223894   0.840   2.999   1.035
 7958WAT      O23895   1.532   2.654   0.905
 7958WAT     H123896   1.460   2.713   0.886
 7958WAT     H223897   1.585   2.653   0.826
 7959WAT      O23898   1.085   2.827   0.255
 7959WAT     H123899   1.121   2.767   0.189
 7959WAT     H223900   0.997   2.794   0.272
 7960WAT      O23901   0.855   3.154   0.680
 7960WAT     H123902   0.919   3.175   0.748
 7960WAT     H223903   0.891   3.078   0.635
 7961WAT      O23904   0.982   2.955   0.552
 7961WAT     H123905   1.046   2.884   0.563
 7961WAT     H223906   1.034   3.033   0.534
 7962WAT      O23907   1.159   3.034   0.872
 7962WAT     H123908   1.193   3.093   0.940
 7962WAT     H223909   1.067   3.021   0.895
 7963WAT      O23910   0.742   3.039   1.189
 7963WAT     H123911   0.710   2.967   1.244
 7963WAT     H223912   0.675   3.107   1.197
 7964WAT      O23913   1.064   2.063   0.726
 7964WAT     H123914   1.100   1.981   0.758
 7964WAT     H223915   0.978   2.069   0.767
 7965WAT      O23916   0.760   2.328   0.748
 7965WAT     H123917   0.810   2.376   0.814
 7965WAT     H223918   0.774   2.236   0.769
 7966WAT      O23919   1.480   1.950   0.832
 7966WAT     H123920   1.430   2.024   0.866
 7966WAT     H223921   1.562   1.989   0.801
 7967WAT      O23922   1.310   2.474   0.177
 7967WAT     H123923   1.215   2.476   0.194
 7967WAT     H223924   1.341   2.395   0.221
 7968WAT      O23925   1.510   3.191   0.344
 7968WAT     H123926   1.522   3.273   0.392
 7968WAT     H223927   1.596   3.170   0.310
 7969WAT      O23928   0.257   3.400   0.312
 7969WAT     H123929   0.331   3.346   0.339
 7969WAT     H223930   0.295   3.487   0.298
 7970WAT      O23931   1.041   2.930   1.225
 7970WAT     H123932   0.981   2.932   1.151
 7970WAT     H223933   1.011   2.857   1.279
 7971WAT      O23934   1.184   3.303   1.086
 7971WAT     H123935   1.279   3.294   1.081
 7971WAT     H223936   1.169   3.369   1.154
 7972WAT      O23937   0.635   2.708   1.078
 7972WAT     H123938   0.558   2.765   1.070
 7972WAT     H223939   0.653   2.679   0.989
 7973WAT      O23940   1.349   2.881   1.134
 7973WAT     H123941   1.423   2.915   1.084
 7973WAT     H223942   1.273   2.898   1.079
 7974WAT      O23943   0.327   2.240   1.011
 7974WAT     H123944   0.274   2.191   0.948
 7974WAT     H223945   0.394   2.283   0.958
 7975WAT      O23946   1.217   2.687   0.987
 7975WAT     H123947   1.258   2.702   1.072
 7975WAT     H223948   1.123   2.699   1.004
 7976WAT      O23949   1.264   2.421   1.188
 7976WAT     H123950   1.322   2.345   1.179
 7976WAT     H223951   1.281   2.474   1.110
 7977WAT      O23952   0.376   1.937   1.019
 7977WAT     H123953   0.366   1.875   0.946
 7977WAT     H223954   0.318   2.009   0.996
 7978WAT      O23955   0.652   1.792   0.722
 7978WAT     H123956   0.607   1.794   0.638
 7978WAT     H223957   0.589   1.752   0.782
 7979WAT      O23958   0.693   2.682   0.784
 7979WAT     H123959   0.735   2.766   0.767
 7979WAT     H223960   0.601   2.696   0.761
 7980WAT      O23961   0.926   2.455   0.923
 7980WAT     H123962   0.938   2.395   0.997
 7980WAT     H223963   1.012   2.459   0.881
 7981WAT      O23964   1.160   2.510   0.780
 7981WAT     H123965   1.108   2.563   0.720
 7981WAT     H223966   1.195   2.574   0.843
 7982WAT      O23967   0.478   3.312   0.896
 7982WAT     H123968   0.424   3.385   0.864
 7982WAT     H223969   0.503   3.265   0.817
 7983WAT      O23970   0.603   2.109   1.049
 7983WAT     H123971   0.662   2.078   1.117
 7983WAT     H223972   0.521   2.062   1.064
 7984WAT      O23973   1.085   2.071   1.072
 7984WAT     H123974   1.016   2.005   1.065
 7984WAT     H223975   1.157   2.026   1.116
 7985WAT      O23976   0.763   3.436   0.922
 7985WAT     H123977   0.756   3.526   0.953
 7985WAT     H223978   0.673   3.404   0.919
 7986WAT      O23979   1.516   3.205   0.955
 7986WAT     H123980   1.456   3.211   0.880
 7986WAT     H223981   1.529   3.111   0.968
 7987WAT      O23982   1.686   2.740   0.223
 7987WAT     H123983   1.724   2.661   0.183
 7987WAT     H223984   1.750   2.808   0.205
 7988WAT      O23985   1.385   2.878   0.765
 7988WAT     H123986   1.303   2.921   0.791
 7988WAT     H223987   1.426   2.939   0.703
 7989WAT      O23988   1.520   2.392   0.917
 7989WAT     H123989   1.497   2.369   0.827
 7989WAT     H223990   1.546   2.484   0.913
 7990WAT      O23991   1.364   1.914   1.195
 7990WAT     H123992   1.451   1.915   1.233
 7990WAT     H223993   1.365   1.841   1.134
 7991WAT      O23994   1.508   2.300   0.284
 7991WAT     H123995   1.561   2.250   0.221
 7991WAT     H223996   1.567   2.313   0.358
 7992WAT      O23997   1.526   2.308   0.636
 7992WAT     H123998   1.431   2.305   0.648
 7992WAT     H223999   1.544   2.399   0.613
 7993WAT      O24000   1.435   1.683   0.777
 7993WAT     H124001   1.498   1.744   0.814
 7993WAT     H224002   1.449   1.687   0.683
 7994WAT      O24003   0.181   2.996   1.132
 7994WAT     H124004   0.177   2.959   1.220
 7994WAT     H224005   0.194   3.090   1.146
 7995WAT      O24006   0.551   3.152   0.692
 7995WAT     H124007   0.527   3.179   0.603
 7995WAT     H224008   0.645   3.169   0.698
 7996WAT      O24009   0.772   1.798   1.068
 7996WAT     H124010   0.766   1.857   1.143
 7996WAT     H224011   0.866   1.788   1.053
 7997WAT      O24012   1.036   1.764   1.032
 7997WAT     H124013   1.097   1.796   0.965
 7997WAT     H224014   1.090   1.715   1.094
 7998WAT      O24015   1.677   3.354   0.772
 7998WAT     H124016   1.628   3.394   0.701
 7998WAT     H224017   1.616   3.291   0.812
 7999WAT      O24018   1.110   1.620   0.664
 7999WAT     H124019   1.022   1.654   0.644
 7999WAT     H224020   1.099   1.573   0.747
 8000WAT      O24021   1.200   1.841   0.803
 8000WAT     H124022   1.167   1.760   0.765
 8000WAT     H224023   1.295   1.837   0.790
 8001WAT      O24024   1.446   3.418   0.500
 8001WAT     H124025   1.400   3.493   0.463
 8001WAT     H224026   1.383   3.346   0.494
 8002WAT      O24027   0.489   3.249   0.418
 8002WAT     H124028   0.540   3.188   0.365
 8002WAT     H224029   0.554   3.299   0.467
 8003WAT      O24030   0.763   3.338   0.500
 8003WAT     H124031   0.791   3.313   0.413
 8003WAT     H224032   0.814   3.283   0.559
 8004WAT      O24033   0.884   1.712   0.558
 8004WAT     H124034   0.806   1.759   0.586
 8004WAT     H224035   0.855   1.622   0.547
 8005WAT      O24036   1.340   1.782   0.363
 8005WAT     H124037   1.384   1.777   0.278
 8005WAT     H224038   1.313   1.874   0.370
 8006WAT      O24039   1.123   1.620   0.233
 8006WAT     H124040   1.183   1.677   0.281
 8006WAT     H224041   1.049   1.677   0.211
 8007WAT      O24042   0.769   3.430   1.237
 8007WAT     H124043   0.862   3.407   1.241
 8007WAT     H224044   0.768   3.513   1.189
 8008WAT      O24045   0.488   1.697   1.213
 8008WAT     H124046   0.460   1.747   1.137
 8008WAT     H224047   0.526   1.617   1.177
 8009WAT      O24048   1.148   1.638   1.271
 8009WAT     H124049   1.137   1.670   1.361
 8009WAT     H224050   1.230   1.678   1.242
 8010WAT      O24051   1.426   3.353   1.219
 8010WAT     H124052   1.505   3.303   1.199
 8010WAT     H224053   1.455   3.421   1.280
 8011WAT      O24054   1.039   0.563   5.817
 8011WAT     H124055   1.031   0.471   5.790
 8011WAT     H224056   0.997   0.612   5.747
 8012WAT      O24057   0.852   0.740   6.005
 8012WAT     H124058   0.774   0.693   6.034
 8012WAT     H224059   0.917   0.673   5.988
 8013WAT      O24060   1.254   1.181   5.883
 8013WAT     H124061   1.208   1.104   5.916
 8013WAT     H224062   1.335   1.184   5.934
 8014WAT      O24063   0.252   1.175   6.113
 8014WAT     H124064   0.282   1.086   6.095
 8014WAT     H224065   0.326   1.231   6.090
 8015WAT      O24066   0.877   1.410   5.845
 8015WAT     H124067   0.815   1.455   5.788
 8015WAT     H224068   0.962   1.425   5.805
 8016WAT      O24069   0.796   1.008   6.006
 8016WAT     H124070   0.789   0.914   5.990
 8016WAT     H224071   0.872   1.017   6.063
 8017WAT      O24072   0.899   0.289   6.029
 8017WAT     H124073   0.937   0.201   6.018
 8017WAT     H224074   0.889   0.322   5.940
 8018WAT      O24075   0.496   0.423   6.008
 8018WAT     H124076   0.547   0.473   6.072
 8018WAT     H224077   0.549   0.345   5.991
 8019WAT      O24078   0.963   0.898   5.585
 8019WAT     H124079   0.901   0.945   5.528
 8019WAT     H224080   1.014   0.967   5.626
 8020WAT      O24081   1.301   0.232   5.999
 8020WAT     H124082   1.230   0.261   6.057
 8020WAT     H224083   1.337   0.313   5.963
 8021WAT      O24084   1.608   0.177   6.038
 8021WAT     H124085   1.513   0.180   6.052
 8021WAT     H224086   1.640   0.258   6.077
 8022WAT      O24087   1.216   1.378   6.097
 8022WAT     H124088   1.217   1.338   6.010
 8022WAT     H224089   1.161   1.456   6.087
 8023WAT      O24090   1.346   1.051   5.606
 8023WAT     H124091   1.334   0.956   5.618
 8023WAT     H224092   1.345   1.087   5.695
 8024WAT      O24093   0.900   0.613   5.542
 8024WAT     H124094   0.807   0.607   5.565
 8024WAT     H224095   0.915   0.707   5.530
 8025WAT      O24096   0.898   0.240   5.241
 8025WAT     H124097   0.804   0.257   5.250
 8025WAT     H224098   0.930   0.312   5.187
 8026WAT      O24099   1.303   0.769   5.592
 8026WAT     H124100   1.241   0.736   5.527
 8026WAT     H224101   1.301   0.705   5.663
 8027WAT      O24102   0.460   0.666   5.820
 8027WAT     H124103   0.420   0.595   5.770
 8027WAT     H224104   0.469   0.631   5.909
 8028WAT      O24105   0.507   1.035   6.036
 8028WAT     H124106   0.477   0.974   5.968
 8028WAT     H224107   0.602   1.038   6.025
 8029WAT      O24108   1.120   0.693   5.293
 8029WAT     H124109   1.164   0.610   5.278
 8029WAT     H224110   1.192   0.757   5.301
 8030WAT      O24111   0.931   1.187   5.690
 8030WAT     H124112   0.975   1.262   5.648
 8030WAT     H224113   0.925   1.212   5.782
 8031WAT      O24114   1.198   1.486   5.425
 8031WAT     H124115   1.182   1.457   5.515
 8031WAT     H224116   1.181   1.408   5.372
 8032WAT      O24117   0.446   1.464   5.603
 8032WAT     H124118   0.428   1.372   5.582
 8032WAT     H224119   0.360   1.500   5.627
 8033WAT      O24120   1.168   1.237   5.281
 8033WAT     H124121   1.099   1.237   5.215
 8033WAT     H224122   1.242   1.194   5.238
 8034WAT      O24123   1.125   1.400   5.689
 8034WAT     H124124   1.170   1.321   5.720
 8034WAT     H224125   1.159   1.471   5.743
 8035WAT      O24126   0.356   0.402   5.681
 8035WAT     H124127   0.334   0.380   5.771
 8035WAT     H224128   0.278   0.445   5.646
 8036WAT      O24129   1.079   0.403   5.541
 8036WAT     H124130   1.019   0.475   5.522
 8036WAT     H224131   1.134   0.396   5.463
 8037WAT      O24132   0.940   0.266   5.744
 8037WAT     H124133   0.979   0.298   5.663
 8037WAT     H224134   0.976   0.178   5.755
 8038WAT      O24135   0.648   0.293   5.293
 8038WAT     H124136   0.660   0.289   5.388
 8038WAT     H224137   0.610   0.379   5.277
 8039WAT      O24138   0.549   0.524   5.233
 8039WAT     H124139   0.493   0.479   5.170
 8039WAT     H224140   0.620   0.560   5.179
 8040WAT      O24141   0.304   0.924   5.460
 8040WAT     H124142   0.227   0.870   5.444
 8040WAT     H224143   0.377   0.872   5.426
 8041WAT      O24144   1.380   0.823   6.039
 8041WAT     H124145   1.452   0.873   6.000
 8041WAT     H224146   1.360   0.755   5.975
 8042WAT      O24147   1.197   0.400   5.283
 8042WAT     H124148   1.286   0.431   5.266
 8042WAT     H224149   1.194   0.313   5.244
 8043WAT      O24150   0.308   0.890   5.824
 8043WAT     H124151   0.360   0.810   5.818
 8043WAT     H224152   0.263   0.884   5.908
 8044WAT      O24153   0.797   1.017   5.351
 8044WAT     H124154   0.831   1.092   5.302
 8044WAT     H224155   0.714   1.048   5.387
 8045WAT      O24156   1.425   0.531   5.230
 8045WAT     H124157   1.416   0.574   5.145
 8045WAT     H224158   1.496   0.577   5.273
 8046WAT      O24159   1.527   1.216   5.503
 8046WAT     H124160   1.463   1.151   5.530
 8046WAT     H224161   1.489   1.257   5.425
 8047WAT      O24162   1.085   0.949   5.888
 8047WAT     H124163   1.121   0.890   5.822
 8047WAT     H224164   0.997   0.917   5.905
 8048WAT      O24165   0.694   1.025   5.628
 8048WAT     H124166   0.763   1.080   5.666
 8048WAT     H224167   0.615   1.080   5.632
 8049WAT      O24168   0.624   0.726   5.590
 8049WAT     H124169   0.670   0.807   5.612
 8049WAT     H224170   0.589   0.694   5.673
 8050WAT      O24171   1.366   1.106   5.157
 8050WAT     H124172   1.344   1.034   5.216
 8050WAT     H224173   1.327   1.081   5.073
 8051WAT      O24174   1.325   0.897   5.323
 8051WAT     H124175   1.296   0.943   5.402
 8051WAT     H224176   1.404   0.851   5.350
 8052WAT      O24177   0.546   1.247   5.316
 8052WAT     H124178   0.545   1.320   5.254
 8052WAT     H224179   0.454   1.222   5.325
 8053WAT      O24180   0.845   1.253   5.182
 8053WAT     H124181   0.855   1.232   5.089
 8053WAT     H224182   0.755   1.227   5.203
 8054WAT      O24183   0.597   0.309   5.580
 8054WAT     H124184   0.526   0.356   5.624
 8054WAT     H224185   0.626   0.243   5.644
 8055WAT      O24186   0.709   1.505   5.652
 8055WAT     H124187   0.734   1.501   5.559
 8055WAT     H224188   0.614   1.492   5.651
 8056WAT      O24189   1.310   0.597   5.809
 8056WAT     H124190   1.215   0.598   5.827
 8056WAT     H224191   1.341   0.518   5.854
 8057WAT      O24192   0.307   0.765   5.165
 8057WAT     H124193   0.384   0.754   5.221
 8057WAT     H224194   0.315   0.695   5.100
 8058WAT      O24195   0.177   0.508   5.234
 8058WAT     H124196   0.185   0.413   5.245
 8058WAT     H224197   0.266   0.541   5.244
 8059WAT      O24198   1.510   1.314   5.977
 8059WAT     H124199   1.522   1.396   6.024
 8059WAT     H224200   1.596   1.293   5.942
 8060WAT      O24201   0.257   1.523   5.944
 8060WAT     H124202   0.331   1.468   5.971
 8060WAT     H224203   0.295   1.610   5.930
 8061WAT      O24204   0.568   1.440   5.126
 8061WAT     H124205   0.647   1.469   5.081
 8061WAT     H224206   0.516   1.397   5.058
 8062WAT      O24207   1.473   1.363   5.268
 8062WAT     H124208   1.445   1.322   5.187
 8062WAT     H224209   1.453   1.456   5.256
 8063WAT      O24210   0.620   0.962   5.113
 8063WAT     H124211   0.609   0.901   5.185
 8063WAT     H224212   0.603   0.910   5.034
 8064WAT      O24213   0.944   0.869   5.173
 8064WAT     H124214   0.889   0.913   5.237
 8064WAT     H224215   1.006   0.818   5.225
 8065WAT      O24216   0.511   0.764   5.363
 8065WAT     H124217   0.553   0.748   5.447
 8065WAT     H224218   0.523   0.683   5.313
 8066WAT      O24219   0.762   0.667   5.087
 8066WAT     H124220   0.814   0.595   5.051
 8066WAT     H224221   0.827   0.731   5.117
 8067WAT      O24222   0.400   0.372   5.057
 8067WAT     H124223   0.380   0.285   5.093
 8067WAT     H224224   0.383   0.363   4.963
 8068WAT      O24225   0.818   1.475   5.316
 8068WAT     H124226   0.908   1.509   5.319
 8068WAT     H224227   0.821   1.403   5.254
 8069WAT      O24228   0.182   1.012   5.139
 8069WAT     H124229   0.226   1.067   5.205
 8069WAT     H224230   0.231   0.930   5.140
 8070WAT      O24231   0.363   1.124   5.650
 8070WAT     H124232   0.333   1.112   5.741
 8070WAT     H224233   0.353   1.038   5.610
 8071WAT      O24234   1.640   1.102   5.121
 8071WAT     H124235   1.557   1.109   5.168
 8071WAT     H224236   1.658   1.191   5.090
 8072WAT      O24237   1.586   0.777   5.371
 8072WAT     H124238   1.662   0.834   5.382
 8072WAT     H224239   1.587   0.720   5.448
 8073WAT      O24240   1.686   0.862   5.856
 8073WAT     H124241   1.724   0.784   5.815
 8073WAT     H224242   1.750   0.931   5.838
 8074WAT      O24243   1.591   0.806   5.087
 8074WAT     H124244   1.619   0.897   5.074
 8074WAT     H224245   1.572   0.800   5.180
 8075WAT      O24246   1.581   0.600   5.586
 8075WAT     H124247   1.543   0.523   5.543
 8075WAT     H224248   1.508   0.638   5.635
 8076WAT      O24249   1.508   0.422   5.916
 8076WAT     H124250   1.561   0.373   5.853
 8076WAT     H224251   1.567   0.436   5.991
 8077WAT      O24252   1.457   0.348   5.510
 8077WAT     H124253   1.507   0.325   5.589
 8077WAT     H224254   1.437   0.264   5.468
 8078WAT      O24255   1.391   1.476   5.749
 8078WAT     H124256   1.450   1.444   5.682
 8078WAT     H224257   1.416   1.428   5.829
 8079WAT      O24258   1.446   1.541   6.132
 8079WAT     H124259   1.400   1.616   6.095
 8079WAT     H224260   1.383   1.469   6.127
 8080WAT      O24261   0.489   1.372   6.050
 8080WAT     H124262   0.540   1.310   5.997
 8080WAT     H224263   0.554   1.422   6.099
 8081WAT      O24264   1.593   1.507   5.569
 8081WAT     H124265   1.610   1.438   5.505
 8081WAT     H224266   1.523   1.560   5.530
 8082WAT      O24267   0.377   1.546   5.324
 8082WAT     H124268   0.450   1.518   5.270
 8082WAT     H224269   0.403   1.522   5.413
 8083WAT      O24270   0.293   1.158   5.325
 8083WAT     H124271   0.230   1.205   5.380
 8083WAT     H224272   0.305   1.073   5.368
 8084WAT      O24273   1.039   0.563   3.940
 8084WAT     H124274   1.031   0.471   3.913
 8084WAT     H224275   0.997   0.612   3.869
 8085WAT      O24276   0.852   0.740   4.128
 8085WAT     H124277   0.774   0.693   4.157
 8085WAT     H224278   0.917   0.673   4.111
 8086WAT      O24279   1.254   1.181   4.006
 8086WAT     H124280   1.208   1.104   4.039
 8086WAT     H224281   1.335   1.184   4.057
 8087WAT      O24282   0.252   1.175   4.235
 8087WAT     H124283   0.282   1.086   4.217
 8087WAT     H224284   0.326   1.231   4.213
 8088WAT      O24285   0.877   1.410   3.968
 8088WAT     H124286   0.815   1.455   3.911
 8088WAT     H224287   0.962   1.425   3.928
 8089WAT      O24288   0.796   1.008   4.129
 8089WAT     H124289   0.789   0.914   4.113
 8089WAT     H224290   0.872   1.017   4.186
 8090WAT      O24291   0.899   0.289   4.151
 8090WAT     H124292   0.937   0.201   4.140
 8090WAT     H224293   0.889   0.322   4.062
 8091WAT      O24294   0.496   0.423   4.131
 8091WAT     H124295   0.547   0.473   4.195
 8091WAT     H224296   0.549   0.345   4.113
 8092WAT      O24297   1.706   0.240   4.501
 8092WAT     H124298   1.636   0.279   4.449
 8092WAT     H224299   1.733   0.309   4.561
 8093WAT      O24300   0.963   0.898   3.707
 8093WAT     H124301   0.901   0.945   3.651
 8093WAT     H224302   1.014   0.967   3.749
 8094WAT      O24303   0.449   0.851   4.375
 8094WAT     H124304   0.416   0.914   4.439
 8094WAT     H224305   0.467   0.903   4.297
 8095WAT      O24306   1.301   0.232   4.122
 8095WAT     H124307   1.230   0.261   4.180
 8095WAT     H224308   1.337   0.313   4.086
 8096WAT      O24309   0.371   1.048   4.557
 8096WAT     H124310   0.432   1.115   4.529
 8096WAT     H224311   0.285   1.089   4.548
 8097WAT      O24312   1.462   1.194   4.348
 8097WAT     H124313   1.394   1.261   4.347
 8097WAT     H224314   1.516   1.214   4.272
 8098WAT      O24315   1.608   0.177   4.161
 8098WAT     H124316   1.513   0.180   4.174
 8098WAT     H224317   1.640   0.258   4.200
 8099WAT      O24318   1.216   1.378   4.220
 8099WAT     H124319   1.217   1.338   4.133
 8099WAT     H224320   1.161   1.456   4.209
 8100WAT      O24321   1.346   1.051   3.729
 8100WAT     H124322   1.334   0.956   3.741
 8100WAT     H224323   1.345   1.087   3.817
 8101WAT      O24324   1.156   0.869   4.352
 8101WAT     H124325   1.198   0.847   4.269
 8101WAT     H224326   1.228   0.895   4.410
 8102WAT      O24327   0.900   0.613   3.664
 8102WAT     H124328   0.807   0.607   3.687
 8102WAT     H224329   0.915   0.707   3.653
 8103WAT      O24330   0.898   0.240   3.364
 8103WAT     H124331   0.804   0.257   3.372
 8103WAT     H224332   0.930   0.312   3.309
 8104WAT      O24333   1.551   0.709   4.362
 8104WAT     H124334   1.468   0.716   4.314
 8104WAT     H224335   1.610   0.767   4.315
 8105WAT      O24336   1.303   0.769   3.715
 8105WAT     H124337   1.241   0.736   3.650
 8105WAT     H224338   1.301   0.705   3.785
 8106WAT      O24339   1.247   0.387   4.456
 8106WAT     H124340   1.206   0.470   4.482
 8106WAT     H224341   1.174   0.329   4.437
 8107WAT      O24342   0.460   0.666   3.942
 8107WAT     H124343   0.420   0.595   3.893
 8107WAT     H224344   0.469   0.631   4.031
 8108WAT      O24345   0.507   1.035   4.159
 8108WAT     H124346   0.477   0.974   4.091
 8108WAT     H224347   0.602   1.038   4.148
 8109WAT      O24348   0.332   0.343   4.320
 8109WAT     H124349   0.387   0.354   4.243
 8109WAT     H224350   0.383   0.381   4.392
 8110WAT      O24351   1.316   1.392   4.525
 8110WAT     H124352   1.268   1.473   4.506
 8110WAT     H224353   1.248   1.327   4.540
 8111WAT      O24354   0.416   1.008   4.824
 8111WAT     H124355   0.327   1.031   4.849
 8111WAT     H224356   0.419   1.021   4.729
 8112WAT      O24357   1.120   0.693   3.415
 8112WAT     H124358   1.164   0.610   3.401
 8112WAT     H224359   1.192   0.757   3.424
 8113WAT      O24360   0.299   0.696   4.681
 8113WAT     H124361   0.285   0.783   4.718
 8113WAT     H224362   0.211   0.661   4.667
 8114WAT      O24363   0.931   1.187   3.812
 8114WAT     H124364   0.975   1.262   3.771
 8114WAT     H224365   0.925   1.212   3.904
 8115WAT      O24366   0.479   1.290   4.902
 8115WAT     H124367   0.476   1.330   4.816
 8115WAT     H224368   0.462   1.197   4.886
 8116WAT      O24369   1.674   1.368   5.032
 8116WAT     H124370   1.722   1.416   5.100
 8116WAT     H224371   1.736   1.361   4.959
 8117WAT      O24372   1.614   1.087   4.748
 8117WAT     H124373   1.627   1.063   4.656
 8117WAT     H224374   1.618   1.004   4.795
 8118WAT      O24375   1.000   1.457   4.605
 8118WAT     H124376   1.052   1.449   4.685
 8118WAT     H224377   0.916   1.492   4.634
 8119WAT      O24378   1.198   1.486   3.548
 8119WAT     H124379   1.182   1.457   3.638
 8119WAT     H224380   1.181   1.408   3.494
 8120WAT      O24381   0.446   1.464   3.725
 8120WAT     H124382   0.428   1.372   3.704
 8120WAT     H224383   0.360   1.500   3.749
 8121WAT      O24384   1.168   1.237   3.404
 8121WAT     H124385   1.099   1.237   3.338
 8121WAT     H224386   1.242   1.194   3.361
 8122WAT      O24387   1.125   1.400   3.811
 8122WAT     H124388   1.170   1.321   3.843
 8122WAT     H224389   1.159   1.471   3.866
 8123WAT      O24390   1.600   0.293   4.844
 8123WAT     H124391   1.538   0.343   4.792
 8123WAT     H224392   1.567   0.202   4.839
 8124WAT      O24393   1.306   0.299   4.704
 8124WAT     H124394   1.221   0.269   4.736
 8124WAT     H224395   1.290   0.323   4.613
 8125WAT      O24396   1.015   0.449   4.914
 8125WAT     H124397   1.048   0.365   4.880
 8125WAT     H224398   1.094   0.501   4.929
 8126WAT      O24399   0.356   0.402   3.804
 8126WAT     H124400   0.334   0.380   3.894
 8126WAT     H224401   0.278   0.445   3.769
 8127WAT      O24402   1.079   0.403   3.663
 8127WAT     H124403   1.019   0.475   3.645
 8127WAT     H224404   1.134   0.396   3.585
 8128WAT      O24405   0.600   0.492   4.870
 8128WAT     H124406   0.591   0.398   4.855
 8128WAT     H224407   0.684   0.514   4.831
 8129WAT      O24408   0.940   0.266   3.866
 8129WAT     H124409   0.979   0.298   3.785
 8129WAT     H224410   0.976   0.178   3.878
 8130WAT      O24411   0.998   0.525   4.276
 8130WAT     H124412   0.925   0.576   4.311
 8130WAT     H224413   0.959   0.444   4.246
 8131WAT      O24414   0.648   0.293   3.416
 8131WAT     H124415   0.660   0.289   3.510
 8131WAT     H224416   0.610   0.379   3.400
 8132WAT      O24417   0.549   0.524   3.355
 8132WAT     H124418   0.493   0.479   3.293
 8132WAT     H224419   0.620   0.560   3.302
 8133WAT      O24420   0.672   0.599   4.291
 8133WAT     H124421   0.709   0.552   4.366
 8133WAT     H224422   0.653   0.686   4.325
 8134WAT      O24423   0.451   0.503   4.523
 8134WAT     H124424   0.421   0.591   4.545
 8134WAT     H224425   0.547   0.509   4.527
 8135WAT      O24426   0.304   0.924   3.583
 8135WAT     H124427   0.227   0.870   3.567
 8135WAT     H224428   0.377   0.872   3.549
 8136WAT      O24429   1.380   0.823   4.162
 8136WAT     H124430   1.452   0.873   4.123
 8136WAT     H224431   1.360   0.755   4.097
 8137WAT      O24432   0.918   0.830   4.751
 8137WAT     H124433   0.911   0.738   4.725
 8137WAT     H224434   0.855   0.840   4.822
 8138WAT      O24435   1.197   0.400   3.406
 8138WAT     H124436   1.286   0.431   3.388
 8138WAT     H224437   1.194   0.313   3.367
 8139WAT      O24438   0.308   0.890   3.946
 8139WAT     H124439   0.360   0.810   3.941
 8139WAT     H224440   0.263   0.884   4.031
 8140WAT      O24441   0.797   1.017   3.474
 8140WAT     H124442   0.831   1.092   3.424
 8140WAT     H224443   0.714   1.048   3.510
 8141WAT      O24444   0.377   0.633   4.926
 8141WAT     H124445   0.347   0.647   4.836
 8141WAT     H224446   0.454   0.577   4.917
 8142WAT      O24447   0.911   1.113   4.726
 8142WAT     H124448   0.913   1.019   4.704
 8142WAT     H224449   0.840   1.121   4.790
 8143WAT      O24450   1.425   0.531   3.353
 8143WAT     H124451   1.416   0.574   3.268
 8143WAT     H224452   1.496   0.577   3.396
 8144WAT      O24453   1.532   0.777   4.660
 8144WAT     H124454   1.460   0.836   4.641
 8144WAT     H224455   1.585   0.776   4.580
 8145WAT      O24456   1.527   1.216   3.625
 8145WAT     H124457   1.463   1.151   3.653
 8145WAT     H224458   1.489   1.257   3.548
 8146WAT      O24459   1.085   0.949   4.010
 8146WAT     H124460   1.121   0.890   3.944
 8146WAT     H224461   0.997   0.917   4.027
 8147WAT      O24462   0.694   1.025   3.751
 8147WAT     H124463   0.763   1.080   3.789
 8147WAT     H224464   0.615   1.080   3.754
 8148WAT      O24465   0.624   0.726   3.712
 8148WAT     H124466   0.670   0.807   3.735
 8148WAT     H224467   0.589   0.694   3.795
 8149WAT      O24468   0.855   1.277   4.435
 8149WAT     H124469   0.919   1.297   4.503
 8149WAT     H224470   0.891   1.201   4.390
 8150WAT      O24471   0.982   1.077   4.307
 8150WAT     H124472   1.046   1.007   4.318
 8150WAT     H224473   1.034   1.155   4.289
 8151WAT      O24474   1.366   1.106   3.279
 8151WAT     H124475   1.344   1.034   3.338
 8151WAT     H224476   1.327   1.081   3.195
 8152WAT      O24477   1.159   1.157   4.627
 8152WAT     H124478   1.193   1.216   4.695
 8152WAT     H224479   1.067   1.144   4.650
 8153WAT      O24480   1.325   0.897   3.445
 8153WAT     H124481   1.296   0.943   3.524
 8153WAT     H224482   1.404   0.851   3.472
 8154WAT      O24483   0.742   1.162   4.944
 8154WAT     H124484   0.710   1.090   4.999
 8154WAT     H224485   0.675   1.230   4.951
 8155WAT      O24486   0.546   1.247   3.438
 8155WAT     H124487   0.545   1.320   3.377
 8155WAT     H224488   0.454   1.222   3.448
 8156WAT      O24489   0.845   1.253   3.305
 8156WAT     H124490   0.855   1.232   3.212
 8156WAT     H224491   0.755   1.227   3.325
 8157WAT      O24492   0.597   0.309   3.703
 8157WAT     H124493   0.526   0.356   3.747
 8157WAT     H224494   0.626   0.243   3.766
 8158WAT      O24495   0.760   0.451   4.503
 8158WAT     H124496   0.810   0.498   4.569
 8158WAT     H224497   0.774   0.358   4.524
 8159WAT      O24498   0.709   1.505   3.774
 8159WAT     H124499   0.734   1.501   3.682
 8159WAT     H224500   0.614   1.492   3.773
 8160WAT      O24501   1.310   0.597   3.932
 8160WAT     H124502   1.215   0.598   3.949
 8160WAT     H224503   1.341   0.518   3.976
 8161WAT      O24504   0.307   0.765   3.288
 8161WAT     H124505   0.384   0.754   3.344
 8161WAT     H224506   0.315   0.695   3.223
 8162WAT      O24507   0.177   0.508   3.356
 8162WAT     H124508   0.185   0.413   3.367
 8162WAT     H224509   0.266   0.541   3.367
 8163WAT      O24510   1.510   1.314   4.099
 8163WAT     H124511   1.522   1.396   4.146
 8163WAT     H224512   1.596   1.293   4.064
 8164WAT      O24513   0.257   1.523   4.066
 8164WAT     H124514   0.331   1.468   4.093
 8164WAT     H224515   0.295   1.610   4.052
 8165WAT      O24516   0.568   1.440   3.249
 8165WAT     H124517   0.647   1.469   3.203
 8165WAT     H224518   0.516   1.397   3.181
 8166WAT      O24519   1.041   1.052   4.980
 8166WAT     H124520   0.981   1.055   4.906
 8166WAT     H224521   1.011   0.979   5.034
 8167WAT      O24522   1.184   1.425   4.841
 8167WAT     H124523   1.279   1.417   4.836
 8167WAT     H224524   1.169   1.492   4.908
 8168WAT      O24525   1.473   1.363   3.391
 8168WAT     H124526   1.445   1.322   3.310
 8168WAT     H224527   1.453   1.456   3.379
 8169WAT      O24528   0.620   0.962   3.235
 8169WAT     H124529   0.609   0.901   3.308
 8169WAT     H224530   0.603   0.910   3.157
 8170WAT      O24531   0.635   0.831   4.833
 8170WAT     H124532   0.558   0.888   4.825
 8170WAT     H224533   0.653   0.802   4.744
 8171WAT      O24534   0.944   0.869   3.296
 8171WAT     H124535   0.889   0.913   3.360
 8171WAT     H224536   1.006   0.818   3.348
 8172WAT      O24537   1.349   1.004   4.889
 8172WAT     H124538   1.423   1.038   4.838
 8172WAT     H224539   1.273   1.021   4.833
 8173WAT      O24540   0.511   0.764   3.485
 8173WAT     H124541   0.553   0.748   3.569
 8173WAT     H224542   0.523   0.683   3.436
 8174WAT      O24543   0.327   0.362   4.766
 8174WAT     H124544   0.274   0.313   4.703
 8174WAT     H224545   0.394   0.405   4.712
 8175WAT      O24546   0.762   0.667   3.210
 8175WAT     H124547   0.814   0.595   3.173
 8175WAT     H224548   0.827   0.731   3.240
 8176WAT      O24549   1.217   0.809   4.742
 8176WAT     H124550   1.258   0.825   4.827
 8176WAT     H224551   1.123   0.822   4.759
 8177WAT      O24552   1.264   0.543   4.943
 8177WAT     H124553   1.322   0.468   4.934
 8177WAT     H224554   1.281   0.596   4.865
 8178WAT      O24555   0.693   0.804   4.539
 8178WAT     H124556   0.735   0.889   4.522
 8178WAT     H224557   0.601   0.818   4.516
 8179WAT      O24558   0.926   0.578   4.678
 8179WAT     H124559   0.938   0.518   4.752
 8179WAT     H224560   1.012   0.581   4.636
 8180WAT      O24561   1.160   0.633   4.535
 8180WAT     H124562   1.108   0.685   4.475
 8180WAT     H224563   1.195   0.696   4.598
 8181WAT      O24564   0.400   0.372   3.180
 8181WAT     H124565   0.380   0.285   3.216
 8181WAT     H224566   0.383   0.363   3.086
 8182WAT      O24567   0.478   1.435   4.651
 8182WAT     H124568   0.424   1.507   4.619
 8182WAT     H224569   0.503   1.387   4.572
 8183WAT      O24570   0.603   0.232   4.803
 8183WAT     H124571   0.662   0.201   4.872
 8183WAT     H224572   0.521   0.185   4.819
 8184WAT      O24573   0.763   1.558   4.677
 8184WAT     H124574   0.756   1.649   4.707
 8184WAT     H224575   0.673   1.527   4.674
 8185WAT      O24576   0.818   1.475   3.439
 8185WAT     H124577   0.908   1.509   3.441
 8185WAT     H224578   0.821   1.403   3.376
 8186WAT      O24579   0.182   1.012   3.262
 8186WAT     H124580   0.226   1.067   3.327
 8186WAT     H224581   0.231   0.930   3.263
 8187WAT      O24582   0.363   1.124   3.773
 8187WAT     H124583   0.333   1.112   3.863
 8187WAT     H224584   0.353   1.038   3.732
 8188WAT      O24585   1.516   1.328   4.710
 8188WAT     H124586   1.456   1.334   4.635
 8188WAT     H224587   1.529   1.234   4.723
 8189WAT      O24588   1.640   1.102   3.243
 8189WAT     H124589   1.557   1.109   3.290
 8189WAT     H224590   1.658   1.191   3.213
 8190WAT      O24591   1.586   0.777   3.494
 8190WAT     H124592   1.662   0.834   3.504
 8190WAT     H224593   1.587   0.720   3.571
 8191WAT      O24594   1.686   0.862   3.978
 8191WAT     H124595   1.724   0.784   3.937
 8191WAT     H224596   1.750   0.931   3.960
 8192WAT      O24597   1.385   1.001   4.519
 8192WAT     H124598   1.303   1.044   4.546
 8192WAT     H224599   1.426   1.062   4.458
 8193WAT      O24600   1.591   0.806   3.209
 8193WAT     H124601   1.619   0.897   3.197
 8193WAT     H224602   1.572   0.800   3.303
 8194WAT      O24603   1.581   0.600   3.709
 8194WAT     H124604   1.543   0.523   3.665
 8194WAT     H224605   1.508   0.638   3.757
 8195WAT      O24606   1.520   0.514   4.672
 8195WAT     H124607   1.497   0.492   4.582
 8195WAT     H224608   1.546   0.606   4.668
 8196WAT      O24609   1.508   0.422   4.039
 8196WAT     H124610   1.561   0.373   3.976
 8196WAT     H224611   1.567   0.436   4.113
 8197WAT      O24612   1.526   0.431   4.391
 8197WAT     H124613   1.431   0.427   4.402
 8197WAT     H224614   1.544   0.522   4.367
 8198WAT      O24615   1.457   0.348   3.633
 8198WAT     H124616   1.507   0.325   3.711
 8198WAT     H224617   1.437   0.264   3.591
 8199WAT      O24618   1.391   1.476   3.872
 8199WAT     H124619   1.450   1.444   3.804
 8199WAT     H224620   1.416   1.428   3.951
 8200WAT      O24621   0.181   1.119   4.887
 8200WAT     H124622   0.177   1.082   4.975
 8200WAT     H224623   0.194   1.213   4.901
 8201WAT      O24624   0.551   1.274   4.447
 8201WAT     H124625   0.527   1.301   4.358
 8201WAT     H224626   0.645   1.292   4.453
 8202WAT      O24627   1.677   1.476   4.527
 8202WAT     H124628   1.628   1.516   4.455
 8202WAT     H224629   1.616   1.414   4.567
 8203WAT      O24630   1.446   1.541   4.255
 8203WAT     H124631   1.400   1.616   4.218
 8203WAT     H224632   1.383   1.469   4.249
 8204WAT      O24633   0.489   1.372   4.173
 8204WAT     H124634   0.540   1.310   4.120
 8204WAT     H224635   0.554   1.422   4.222
 8205WAT      O24636   0.763   1.461   4.255
 8205WAT     H124637   0.791   1.435   4.168
 8205WAT     H224638   0.814   1.405   4.314
 8206WAT      O24639   0.769   1.553   4.992
 8206WAT     H124640   0.862   1.529   4.996
 8206WAT     H224641   0.768   1.636   4.944
 8207WAT      O24642   1.593   1.507   3.692
 8207WAT     H124643   1.610   1.438   3.627
 8207WAT     H224644   1.523   1.560   3.652
 8208WAT      O24645   0.377   1.546   3.447
 8208WAT     H124646   0.450   1.518   3.392
 8208WAT     H224647   0.403   1.522   3.536
 8209WAT      O24648   0.293   1.158   3.447
 8209WAT     H124649   0.230   1.205   3.502
 8209WAT     H224650   0.305   1.073   3.491
 8210WAT      O24651   1.426   1.475   4.974
 8210WAT     H124652   1.505   1.426   4.954
 8210WAT     H224653   1.455   1.543   5.035
 8211WAT      O24654   1.039   0.563   2.062
 8211WAT     H124655   1.031   0.471   2.035
 8211WAT     H224656   0.997   0.612   1.992
 8212WAT      O24657   0.852   0.740   2.251
 8212WAT     H124658   0.774   0.693   2.280
 8212WAT     H224659   0.917   0.673   2.233
 8213WAT      O24660   1.254   1.181   2.129
 8213WAT     H124661   1.208   1.104   2.161
 8213WAT     H224662   1.335   1.184   2.179
 8214WAT      O24663   0.252   1.175   2.358
 8214WAT     H124664   0.282   1.086   2.340
 8214WAT     H224665   0.326   1.231   2.335
 8215WAT      O24666   0.877   1.410   2.091
 8215WAT     H124667   0.815   1.455   2.034
 8215WAT     H224668   0.962   1.425   2.050
 8216WAT      O24669   0.796   1.008   2.251
 8216WAT     H124670   0.789   0.914   2.235
 8216WAT     H224671   0.872   1.017   2.308
 8217WAT      O24672   0.899   0.289   2.274
 8217WAT     H124673   0.937   0.201   2.263
 8217WAT     H224674   0.889   0.322   2.185
 8218WAT      O24675   0.496   0.423   2.253
 8218WAT     H124676   0.547   0.473   2.317
 8218WAT     H224677   0.549   0.345   2.236
 8219WAT      O24678   1.706   0.240   2.624
 8219WAT     H124679   1.636   0.279   2.572
 8219WAT     H224680   1.733   0.309   2.684
 8220WAT      O24681   0.963   0.898   1.830
 8220WAT     H124682   0.901   0.945   1.774
 8220WAT     H224683   1.014   0.967   1.872
 8221WAT      O24684   0.449   0.851   2.498
 8221WAT     H124685   0.416   0.914   2.562
 8221WAT     H224686   0.467   0.903   2.420
 8222WAT      O24687   1.301   0.232   2.245
 8222WAT     H124688   1.230   0.261   2.303
 8222WAT     H224689   1.337   0.313   2.208
 8223WAT      O24690   0.371   1.048   2.679
 8223WAT     H124691   0.432   1.115   2.651
 8223WAT     H224692   0.285   1.089   2.670
 8224WAT      O24693   1.462   1.194   2.471
 8224WAT     H124694   1.394   1.261   2.470
 8224WAT     H224695   1.516   1.214   2.394
 8225WAT      O24696   1.608   0.177   2.284
 8225WAT     H124697   1.513   0.180   2.297
 8225WAT     H224698   1.640   0.258   2.322
 8226WAT      O24699   1.216   1.378   2.342
 8226WAT     H124700   1.217   1.338   2.255
 8226WAT     H224701   1.161   1.456   2.332
 8227WAT      O24702   1.346   1.051   1.851
 8227WAT     H124703   1.334   0.956   1.864
 8227WAT     H224704   1.345   1.087   1.940
 8228WAT      O24705   1.156   0.869   2.475
 8228WAT     H124706   1.198   0.847   2.392
 8228WAT     H224707   1.228   0.895   2.532
 8229WAT      O24708   0.900   0.613   1.787
 8229WAT     H124709   0.807   0.607   1.810
 8229WAT     H224710   0.915   0.707   1.775
 8230WAT      O24711   0.898   0.240   1.486
 8230WAT     H124712   0.804   0.257   1.495
 8230WAT     H224713   0.930   0.312   1.432
 8231WAT      O24714   1.551   0.709   2.484
 8231WAT     H124715   1.468   0.716   2.437
 8231WAT     H224716   1.610   0.767   2.437
 8232WAT      O24717   1.303   0.769   1.837
 8232WAT     H124718   1.241   0.736   1.772
 8232WAT     H224719   1.301   0.705   1.908
 8233WAT      O24720   1.247   0.387   2.579
 8233WAT     H124721   1.206   0.470   2.604
 8233WAT     H224722   1.174   0.329   2.560
 8234WAT      O24723   0.460   0.666   2.065
 8234WAT     H124724   0.420   0.595   2.015
 8234WAT     H224725   0.469   0.631   2.154
 8235WAT      O24726   0.507   1.035   2.281
 8235WAT     H124727   0.477   0.974   2.213
 8235WAT     H224728   0.602   1.038   2.270
 8236WAT      O24729   0.332   0.343   2.443
 8236WAT     H124730   0.387   0.354   2.365
 8236WAT     H224731   0.383   0.381   2.514
 8237WAT      O24732   1.316   1.392   2.648
 8237WAT     H124733   1.268   1.473   2.628
 8237WAT     H224734   1.248   1.327   2.663
 8238WAT      O24735   0.416   1.008   2.946
 8238WAT     H124736   0.327   1.031   2.971
 8238WAT     H224737   0.419   1.021   2.852
 8239WAT      O24738   1.120   0.693   1.538
 8239WAT     H124739   1.164   0.610   1.523
 8239WAT     H224740   1.192   0.757   1.546
 8240WAT      O24741   0.299   0.696   2.804
 8240WAT     H124742   0.285   0.783   2.841
 8240WAT     H224743   0.211   0.661   2.789
 8241WAT      O24744   0.931   1.187   1.935
 8241WAT     H124745   0.975   1.262   1.893
 8241WAT     H224746   0.925   1.212   2.027
 8242WAT      O24747   0.479   1.290   3.025
 8242WAT     H124748   0.476   1.330   2.938
 8242WAT     H224749   0.462   1.197   3.009
 8243WAT      O24750   1.674   1.368   3.154
 8243WAT     H124751   1.722   1.416   3.222
 8243WAT     H224752   1.736   1.361   3.082
 8244WAT      O24753   1.614   1.087   2.870
 8244WAT     H124754   1.627   1.063   2.779
 8244WAT     H224755   1.618   1.004   2.918
 8245WAT      O24756   1.000   1.457   2.727
 8245WAT     H124757   1.052   1.449   2.808
 8245WAT     H224758   0.916   1.492   2.757
 8246WAT      O24759   1.198   1.486   1.670
 8246WAT     H124760   1.182   1.457   1.760
 8246WAT     H224761   1.181   1.408   1.617
 8247WAT      O24762   0.446   1.464   1.848
 8247WAT     H124763   0.428   1.372   1.827
 8247WAT     H224764   0.360   1.500   1.872
 8248WAT      O24765   1.168   1.237   1.526
 8248WAT     H124766   1.099   1.237   1.460
 8248WAT     H224767   1.242   1.194   1.483
 8249WAT      O24768   1.125   1.400   1.934
 8249WAT     H124769   1.170   1.321   1.965
 8249WAT     H224770   1.159   1.471   1.988
 8250WAT      O24771   1.600   0.293   2.967
 8250WAT     H124772   1.538   0.343   2.914
 8250WAT     H224773   1.567   0.202   2.961
 8251WAT      O24774   1.306   0.299   2.827
 8251WAT     H124775   1.221   0.269   2.859
 8251WAT     H224776   1.290   0.323   2.735
 8252WAT      O24777   1.015   0.449   3.037
 8252WAT     H124778   1.048   0.365   3.003
 8252WAT     H224779   1.094   0.501   3.051
 8253WAT      O24780   0.356   0.402   1.926
 8253WAT     H124781   0.334   0.380   2.017
 8253WAT     H224782   0.278   0.445   1.892
 8254WAT      O24783   1.079   0.403   1.786
 8254WAT     H124784   1.019   0.475   1.768
 8254WAT     H224785   1.134   0.396   1.708
 8255WAT      O24786   0.600   0.492   2.993
 8255WAT     H124787   0.591   0.398   2.978
 8255WAT     H224788   0.684   0.514   2.953
 8256WAT      O24789   0.940   0.266   1.989
 8256WAT     H124790   0.979   0.298   1.908
 8256WAT     H224791   0.976   0.178   2.000
 8257WAT      O24792   0.998   0.525   2.399
 8257WAT     H124793   0.925   0.576   2.433
 8257WAT     H224794   0.959   0.444   2.368
 8258WAT      O24795   0.648   0.293   1.538
 8258WAT     H124796   0.660   0.289   1.633
 8258WAT     H224797   0.610   0.379   1.523
 8259WAT      O24798   0.549   0.524   1.478
 8259WAT     H124799   0.493   0.479   1.415
 8259WAT     H224800   0.620   0.560   1.425
 8260WAT      O24801   0.672   0.599   2.414
 8260WAT     H124802   0.709   0.552   2.488
 8260WAT     H224803   0.653   0.686   2.448
 8261WAT      O24804   0.451   0.503   2.646
 8261WAT     H124805   0.421   0.591   2.668
 8261WAT     H224806   0.547   0.509   2.649
 8262WAT      O24807   0.304   0.924   1.705
 8262WAT     H124808   0.227   0.870   1.689
 8262WAT     H224809   0.377   0.872   1.671
 8263WAT      O24810   1.380   0.823   2.284
 8263WAT     H124811   1.452   0.873   2.245
 8263WAT     H224812   1.360   0.755   2.220
 8264WAT      O24813   0.918   0.830   2.873
 8264WAT     H124814   0.911   0.738   2.848
 8264WAT     H224815   0.855   0.840   2.945
 8265WAT      O24816   1.197   0.400   1.528
 8265WAT     H124817   1.286   0.431   1.511
 8265WAT     H224818   1.194   0.313   1.489
 8266WAT      O24819   0.308   0.890   2.069
 8266WAT     H124820   0.360   0.810   2.064
 8266WAT     H224821   0.263   0.884   2.153
 8267WAT      O24822   0.797   1.017   1.596
 8267WAT     H124823   0.831   1.092   1.547
 8267WAT     H224824   0.714   1.048   1.633
 8268WAT      O24825   0.377   0.633   3.049
 8268WAT     H124826   0.347   0.647   2.959
 8268WAT     H224827   0.454   0.577   3.039
 8269WAT      O24828   0.911   1.113   2.848
 8269WAT     H124829   0.913   1.019   2.826
 8269WAT     H224830   0.840   1.121   2.912
 8270WAT      O24831   1.425   0.531   1.475
 8270WAT     H124832   1.416   0.574   1.390
 8270WAT     H224833   1.496   0.577   1.518
 8271WAT      O24834   1.532   0.777   2.783
 8271WAT     H124835   1.460   0.836   2.763
 8271WAT     H224836   1.585   0.776   2.703
 8272WAT      O24837   1.527   1.216   1.748
 8272WAT     H124838   1.463   1.151   1.775
 8272WAT     H224839   1.489   1.257   1.670
 8273WAT      O24840   1.085   0.949   2.133
 8273WAT     H124841   1.121   0.890   2.067
 8273WAT     H224842   0.997   0.917   2.150
 8274WAT      O24843   0.694   1.025   1.873
 8274WAT     H124844   0.763   1.080   1.912
 8274WAT     H224845   0.615   1.080   1.877
 8275WAT      O24846   0.624   0.726   1.835
 8275WAT     H124847   0.670   0.807   1.857
 8275WAT     H224848   0.589   0.694   1.918
 8276WAT      O24849   0.855   1.277   2.558
 8276WAT     H124850   0.919   1.297   2.625
 8276WAT     H224851   0.891   1.201   2.512
 8277WAT      O24852   0.982   1.077   2.429
 8277WAT     H124853   1.046   1.007   2.441
 8277WAT     H224854   1.034   1.155   2.411
 8278WAT      O24855   1.366   1.106   1.402
 8278WAT     H124856   1.344   1.034   1.461
 8278WAT     H224857   1.327   1.081   1.318
 8279WAT      O24858   1.159   1.157   2.750
 8279WAT     H124859   1.193   1.216   2.818
 8279WAT     H224860   1.067   1.144   2.773
 8280WAT      O24861   1.325   0.897   1.568
 8280WAT     H124862   1.296   0.943   1.647
 8280WAT     H224863   1.404   0.851   1.595
 8281WAT      O24864   0.742   1.162   3.067
 8281WAT     H124865   0.710   1.090   3.121
 8281WAT     H224866   0.675   1.230   3.074
 8282WAT      O24867   0.546   1.247   1.561
 8282WAT     H124868   0.545   1.320   1.499
 8282WAT     H224869   0.454   1.222   1.570
 8283WAT      O24870   0.845   1.253   1.427
 8283WAT     H124871   0.855   1.232   1.334
 8283WAT     H224872   0.755   1.227   1.448
 8284WAT      O24873   0.597   0.309   1.825
 8284WAT     H124874   0.526   0.356   1.870
 8284WAT     H224875   0.626   0.243   1.889
 8285WAT      O24876   0.760   0.451   2.625
 8285WAT     H124877   0.810   0.498   2.692
 8285WAT     H224878   0.774   0.358   2.646
 8286WAT      O24879   0.709   1.505   1.897
 8286WAT     H124880   0.734   1.501   1.804
 8286WAT     H224881   0.614   1.492   1.896
 8287WAT      O24882   1.310   0.597   2.054
 8287WAT     H124883   1.215   0.598   2.072
 8287WAT     H224884   1.341   0.518   2.099
 8288WAT      O24885   0.307   0.765   1.410
 8288WAT     H124886   0.384   0.754   1.467
 8288WAT     H224887   0.315   0.695   1.345
 8289WAT      O24888   0.177   0.508   1.479
 8289WAT     H124889   0.185   0.413   1.490
 8289WAT     H224890   0.266   0.541   1.489
 8290WAT      O24891   1.510   1.314   2.222
 8290WAT     H124892   1.522   1.396   2.269
 8290WAT     H224893   1.596   1.293   2.187
 8291WAT      O24894   0.257   1.523   2.189
 8291WAT     H124895   0.331   1.468   2.216
 8291WAT     H224896   0.295   1.610   2.175
 8292WAT      O24897   0.568   1.440   1.371
 8292WAT     H124898   0.647   1.469   1.326
 8292WAT     H224899   0.516   1.397   1.303
 8293WAT      O24900   1.041   1.052   3.103
 8293WAT     H124901   0.981   1.055   3.029
 8293WAT     H224902   1.011   0.979   3.156
 8294WAT      O24903   1.184   1.425   2.964
 8294WAT     H124904   1.279   1.417   2.959
 8294WAT     H224905   1.169   1.492   3.031
 8295WAT      O24906   1.473   1.363   1.514
 8295WAT     H124907   1.445   1.322   1.432
 8295WAT     H224908   1.453   1.456   1.502
 8296WAT      O24909   0.620   0.962   1.358
 8296WAT     H124910   0.609   0.901   1.430
 8296WAT     H224911   0.603   0.910   1.279
 8297WAT      O24912   0.635   0.831   2.956
 8297WAT     H124913   0.558   0.888   2.947
 8297WAT     H224914   0.653   0.802   2.866
 8298WAT      O24915   0.944   0.869   1.418
 8298WAT     H124916   0.889   0.913   1.483
 8298WAT     H224917   1.006   0.818   1.470
 8299WAT      O24918   1.349   1.004   3.011
 8299WAT     H124919   1.423   1.038   2.961
 8299WAT     H224920   1.273   1.021   2.956
 8300WAT      O24921   0.511   0.764   1.608
 8300WAT     H124922   0.553   0.748   1.692
 8300WAT     H224923   0.523   0.683   1.558
 8301WAT      O24924   0.327   0.362   2.888
 8301WAT     H124925   0.274   0.313   2.826
 8301WAT     H224926   0.394   0.405   2.835
 8302WAT      O24927   0.762   0.667   1.333
 8302WAT     H124928   0.814   0.595   1.296
 8302WAT     H224929   0.827   0.731   1.363
 8303WAT      O24930   1.217   0.809   2.865
 8303WAT     H124931   1.258   0.825   2.950
 8303WAT     H224932   1.123   0.822   2.881
 8304WAT      O24933   1.264   0.543   3.065
 8304WAT     H124934   1.322   0.468   3.056
 8304WAT     H224935   1.281   0.596   2.988
 8305WAT      O24936   0.693   0.804   2.662
 8305WAT     H124937   0.735   0.889   2.645
 8305WAT     H224938   0.601   0.818   2.639
 8306WAT      O24939   0.926   0.578   2.800
 8306WAT     H124940   0.938   0.518   2.874
 8306WAT     H224941   1.012   0.581   2.758
 8307WAT      O24942   1.160   0.633   2.658
 8307WAT     H124943   1.108   0.685   2.597
 8307WAT     H224944   1.195   0.696   2.721
 8308WAT      O24945   0.400   0.372   1.302
 8308WAT     H124946   0.380   0.285   1.338
 8308WAT     H224947   0.383   0.363   1.209
 8309WAT      O24948   0.478   1.435   2.773
 8309WAT     H124949   0.424   1.507   2.741
 8309WAT     H224950   0.503   1.387   2.694
 8310WAT      O24951   0.603   0.232   2.926
 8310WAT     H124952   0.662   0.201   2.995
 8310WAT     H224953   0.521   0.185   2.942
 8311WAT      O24954   0.763   1.558   2.799
 8311WAT     H124955   0.756   1.649   2.830
 8311WAT     H224956   0.673   1.527   2.796
 8312WAT      O24957   0.818   1.475   1.562
 8312WAT     H124958   0.908   1.509   1.564
 8312WAT     H224959   0.821   1.403   1.499
 8313WAT      O24960   0.182   1.012   1.384
 8313WAT     H124961   0.226   1.067   1.450
 8313WAT     H224962   0.231   0.930   1.385
 8314WAT      O24963   0.363   1.124   1.896
 8314WAT     H124964   0.333   1.112   1.986
 8314WAT     H224965   0.353   1.038   1.855
 8315WAT      O24966   1.516   1.328   2.832
 8315WAT     H124967   1.456   1.334   2.758
 8315WAT     H224968   1.529   1.234   2.845
 8316WAT      O24969   1.640   1.102   1.366
 8316WAT     H124970   1.557   1.109   1.413
 8316WAT     H224971   1.658   1.191   1.336
 8317WAT      O24972   1.586   0.777   1.616
 8317WAT     H124973   1.662   0.834   1.627
 8317WAT     H224974   1.587   0.720   1.693
 8318WAT      O24975   1.686   0.862   2.101
 8318WAT     H124976   1.724   0.784   2.060
 8318WAT     H224977   1.750   0.931   2.083
 8319WAT      O24978   1.385   1.001   2.642
 8319WAT     H124979   1.303   1.044   2.668
 8319WAT     H224980   1.426   1.062   2.581
 8320WAT      O24981   1.591   0.806   1.332
 8320WAT     H124982   1.619   0.897   1.319
 8320WAT     H224983   1.572   0.800   1.426
 8321WAT      O24984   1.581   0.600   1.831
 8321WAT     H124985   1.543   0.523   1.788
 8321WAT     H224986   1.508   0.638   1.880
 8322WAT      O24987   1.520   0.514   2.795
 8322WAT     H124988   1.497   0.492   2.705
 8322WAT     H224989   1.546   0.606   2.790
 8323WAT      O24990   1.508   0.422   2.161
 8323WAT     H124991   1.561   0.373   2.098
 8323WAT     H224992   1.567   0.436   2.236
 8324WAT      O24993   1.526   0.431   2.514
 8324WAT     H124994   1.431   0.427   2.525
 8324WAT     H224995   1.544   0.522   2.490
 8325WAT      O24996   1.457   0.348   1.755
 8325WAT     H124997   1.507   0.325   1.834
 8325WAT     H224998   1.437   0.264   1.714
 8326WAT      O24999   1.391   1.476   1.995
 8326WAT     H125000   1.450   1.444   1.927
 8326WAT     H225001   1.416   1.428   2.074
 8327WAT      O25002   0.181   1.119   3.010
 8327WAT     H125003   0.177   1.082   3.098
 8327WAT     H225004   0.194   1.213   3.024
 8328WAT      O25005   0.551   1.274   2.570
 8328WAT     H125006   0.527   1.301   2.481
 8328WAT     H225007   0.645   1.292   2.575
 8329WAT      O25008   1.677   1.476   2.650
 8329WAT     H125009   1.628   1.516   2.578
 8329WAT     H225010   1.616   1.414   2.689
 8330WAT      O25011   1.446   1.541   2.378
 8330WAT     H125012   1.400   1.616   2.340
 8330WAT     H225013   1.383   1.469   2.372
 8331WAT      O25014   0.489   1.372   2.295
 8331WAT     H125015   0.540   1.310   2.243
 8331WAT     H225016   0.554   1.422   2.344
 8332WAT      O25017   0.763   1.461   2.378
 8332WAT     H125018   0.791   1.435   2.290
 8332WAT     H225019   0.814   1.405   2.437
 8333WAT      O25020   0.769   1.553   3.114
 8333WAT     H125021   0.862   1.529   3.119
 8333WAT     H225022   0.768   1.636   3.066
 8334WAT      O25023   1.593   1.507   1.814
 8334WAT     H125024   1.610   1.438   1.750
 8334WAT     H225025   1.523   1.560   1.775
 8335WAT      O25026   0.377   1.546   1.570
 8335WAT     H125027   0.450   1.518   1.515
 8335WAT     H225028   0.403   1.522   1.659
 8336WAT      O25029   0.293   1.158   1.570
 8336WAT     H125030   0.230   1.205   1.625
 8336WAT     H225031   0.305   1.073   1.613
 8337WAT      O25032   1.426   1.475   3.097
 8337WAT     H125033   1.505   1.426   3.076
 8337WAT     H225034   1.455   1.543   3.158
 8338WAT      O25035   0.852   0.740   0.373
 8338WAT     H125036   0.774   0.693   0.402
 8338WAT     H225037   0.917   0.673   0.356
 8339WAT      O25038   1.254   1.181   0.251
 8339WAT     H125039   1.208   1.104   0.284
 8339WAT     H225040   1.335   1.184   0.302
 8340WAT      O25041   0.252   1.175   0.480
 8340WAT     H125042   0.282   1.086   0.463
 8340WAT     H225043   0.326   1.231   0.458
 8341WAT      O25044   0.796   1.008   0.374
 8341WAT     H125045   0.789   0.914   0.358
 8341WAT     H225046   0.872   1.017   0.431
 8342WAT      O25047   0.899   0.289   0.397
 8342WAT     H125048   0.937   0.201   0.385
 8342WAT     H225049   0.889   0.322   0.307
 8343WAT      O25050   0.496   0.423   0.376
 8343WAT     H125051   0.547   0.473   0.440
 8343WAT     H225052   0.549   0.345   0.358
 8344WAT      O25053   1.706   0.240   0.746
 8344WAT     H125054   1.636   0.279   0.694
 8344WAT     H225055   1.733   0.309   0.806
 8345WAT      O25056   0.449   0.851   0.620
 8345WAT     H125057   0.416   0.914   0.685
 8345WAT     H225058   0.467   0.903   0.542
 8346WAT      O25059   1.301   0.232   0.367
 8346WAT     H125060   1.230   0.261   0.425
 8346WAT     H225061   1.337   0.313   0.331
 8347WAT      O25062   0.371   1.048   0.802
 8347WAT     H125063   0.432   1.115   0.774
 8347WAT     H225064   0.285   1.089   0.793
 8348WAT      O25065   1.462   1.194   0.593
 8348WAT     H125066   1.394   1.261   0.593
 8348WAT     H225067   1.516   1.214   0.517
 8349WAT      O25068   1.608   0.177   0.406
 8349WAT     H125069   1.513   0.180   0.419
 8349WAT     H225070   1.640   0.258   0.445
 8350WAT      O25071   1.216   1.378   0.465
 8350WAT     H125072   1.217   1.338   0.378
 8350WAT     H225073   1.161   1.456   0.454
 8351WAT      O25074   1.156   0.869   0.598
 8351WAT     H125075   1.198   0.847   0.514
 8351WAT     H225076   1.228   0.895   0.655
 8352WAT      O25077   1.551   0.709   0.607
 8352WAT     H125078   1.468   0.716   0.559
 8352WAT     H225079   1.610   0.767   0.560
 8353WAT      O25080   1.247   0.387   0.701
 8353WAT     H125081   1.206   0.470   0.727
 8353WAT     H225082   1.174   0.329   0.682
 8354WAT      O25083   0.507   1.035   0.404
 8354WAT     H125084   0.477   0.974   0.336
 8354WAT     H225085   0.602   1.038   0.393
 8355WAT      O25086   0.332   0.343   0.566
 8355WAT     H125087   0.387   0.354   0.488
 8355WAT     H225088   0.383   0.381   0.637
 8356WAT      O25089   1.316   1.392   0.770
 8356WAT     H125090   1.268   1.473   0.751
 8356WAT     H225091   1.248   1.327   0.785
 8357WAT      O25092   0.416   1.008   1.069
 8357WAT     H125093   0.327   1.031   1.094
 8357WAT     H225094   0.419   1.021   0.974
 8358WAT      O25095   0.299   0.696   0.927
 8358WAT     H125096   0.285   0.783   0.963
 8358WAT     H225097   0.211   0.661   0.912
 8359WAT      O25098   0.479   1.290   1.147
 8359WAT     H125099   0.476   1.330   1.061
 8359WAT     H225100   0.462   1.197   1.131
 8360WAT      O25101   1.674   1.368   1.277
 8360WAT     H125102   1.722   1.416   1.345
 8360WAT     H225103   1.736   1.361   1.205
 8361WAT      O25104   1.614   1.087   0.993
 8361WAT     H125105   1.627   1.063   0.901
 8361WAT     H225106   1.618   1.004   1.040
 8362WAT      O25107   1.000   1.457   0.850
 8362WAT     H125108   1.052   1.449   0.930
 8362WAT     H225109   0.916   1.492   0.879
 8363WAT      O25110   1.600   0.293   1.090
 8363WAT     H125111   1.538   0.343   1.037
 8363WAT     H225112   1.567   0.202   1.084
 8364WAT      O25113   1.306   0.299   0.949
 8364WAT     H125114   1.221   0.269   0.981
 8364WAT     H225115   1.290   0.323   0.858
 8365WAT      O25116   1.015   0.449   1.159
 8365WAT     H125117   1.048   0.365   1.125
 8365WAT     H225118   1.094   0.501   1.174
 8366WAT      O25119   0.600   0.492   1.115
 8366WAT     H125120   0.591   0.398   1.100
 8366WAT     H225121   0.684   0.514   1.076
 8367WAT      O25122   0.998   0.525   0.521
 8367WAT     H125123   0.925   0.576   0.556
 8367WAT     H225124   0.959   0.444   0.491
 8368WAT      O25125   0.672   0.599   0.536
 8368WAT     H125126   0.709   0.552   0.611
 8368WAT     H225127   0.653   0.686   0.570
 8369WAT      O25128   0.451   0.503   0.768
 8369WAT     H125129   0.421   0.591   0.791
 8369WAT     H225130   0.547   0.509   0.772
 8370WAT      O25131   1.380   0.823   0.407
 8370WAT     H125132   1.452   0.873   0.368
 8370WAT     H225133   1.360   0.755   0.343
 8371WAT      O25134   0.918   0.830   0.996
 8371WAT     H125135   0.911   0.738   0.970
 8371WAT     H225136   0.855   0.840   1.067
 8372WAT      O25137   0.308   0.890   0.192
 8372WAT     H125138   0.360   0.810   0.186
 8372WAT     H225139   0.263   0.884   0.276
 8373WAT      O25140   0.377   0.633   1.171
 8373WAT     H125141   0.347   0.647   1.081
 8373WAT     H225142   0.454   0.577   1.162
 8374WAT      O25143   0.911   1.113   0.971
 8374WAT     H125144   0.913   1.019   0.949
 8374WAT     H225145   0.840   1.121   1.035
 8375WAT      O25146   1.532   0.777   0.905
 8375WAT     H125147   1.460   0.836   0.886
 8375WAT     H225148   1.585   0.776   0.826
 8376WAT      O25149   1.085   0.949   0.255
 8376WAT     H125150   1.121   0.890   0.189
 8376WAT     H225151   0.997   0.917   0.272
 8377WAT      O25152   0.855   1.277   0.680
 8377WAT     H125153   0.919   1.297   0.748
 8377WAT     H225154   0.891   1.201   0.635
 8378WAT      O25155   0.982   1.077   0.552
 8378WAT     H125156   1.046   1.007   0.563
 8378WAT     H225157   1.034   1.155   0.534
 8379WAT      O25158   1.159   1.157   0.872
 8379WAT     H125159   1.193   1.216   0.940
 8379WAT     H225160   1.067   1.144   0.895
 8380WAT      O25161   0.742   1.162   1.189
 8380WAT     H125162   0.710   1.090   1.244
 8380WAT     H225163   0.675   1.230   1.197
 8381WAT      O25164   0.760   0.451   0.748
 8381WAT     H125165   0.810   0.498   0.814
 8381WAT     H225166   0.774   0.358   0.769
 8382WAT      O25167   1.310   0.597   0.177
 8382WAT     H125168   1.215   0.598   0.194
 8382WAT     H225169   1.341   0.518   0.221
 8383WAT      O25170   1.510   1.314   0.344
 8383WAT     H125171   1.522   1.396   0.392
 8383WAT     H225172   1.596   1.293   0.310
 8384WAT      O25173   0.257   1.523   0.312
 8384WAT     H125174   0.331   1.468   0.339
 8384WAT     H225175   0.295   1.610   0.298
 8385WAT      O25176   1.041   1.052   1.225
 8385WAT     H125177   0.981   1.055   1.151
 8385WAT     H225178   1.011   0.979   1.279
 8386WAT      O25179   1.184   1.425   1.086
 8386WAT     H125180   1.279   1.417   1.081
 8386WAT     H225181   1.169   1.492   1.154
 8387WAT      O25182   0.635   0.831   1.078
 8387WAT     H125183   0.558   0.888   1.070
 8387WAT     H225184   0.653   0.802   0.989
 8388WAT      O25185   1.349   1.004   1.134
 8388WAT     H125186   1.423   1.038   1.084
 8388WAT     H225187   1.273   1.021   1.079
 8389WAT      O25188   0.327   0.362   1.011
 8389WAT     H125189   0.274   0.313   0.948
 8389WAT     H225190   0.394   0.405   0.958
 8390WAT      O25191   1.217   0.809   0.987
 8390WAT     H125192   1.258   0.825   1.072
 8390WAT     H225193   1.123   0.822   1.004
 8391WAT      O25194   1.264   0.543   1.188
 8391WAT     H125195   1.322   0.468   1.179
 8391WAT     H225196   1.281   0.596   1.110
 8392WAT      O25197   0.693   0.804   0.784
 8392WAT     H125198   0.735   0.889   0.767
 8392WAT     H225199   0.601   0.818   0.761
 8393WAT      O25200   0.926   0.578   0.923
 8393WAT     H125201   0.938   0.518   0.997
 8393WAT     H225202   1.012   0.581   0.881
 8394WAT      O25203   1.160   0.633   0.780
 8394WAT     H125204   1.108   0.685   0.720
 8394WAT     H225205   1.195   0.696   0.843
 8395WAT      O25206   0.478   1.435   0.896
 8395WAT     H125207   0.424   1.507   0.864
 8395WAT     H225208   0.503   1.387   0.817
 8396WAT      O25209   0.603   0.232   1.049
 8396WAT     H125210   0.662   0.201   1.117
 8396WAT     H225211   0.521   0.185   1.064
 8397WAT      O25212   0.763   1.558   0.922
 8397WAT     H125213   0.756   1.649   0.953
 8397WAT     H225214   0.673   1.527   0.919
 8398WAT      O25215   1.516   1.328   0.955
 8398WAT     H125216   1.456   1.334   0.880
 8398WAT     H225217   1.529   1.234   0.968
 8399WAT      O25218   1.686   0.862   0.223
 8399WAT     H125219   1.724   0.784   0.183
 8399WAT     H225220   1.750   0.931   0.205
 8400WAT      O25221   1.385   1.001   0.765
 8400WAT     H125222   1.303   1.044   0.791
 8400WAT     H225223   1.426   1.062   0.703
 8401WAT      O25224   1.520   0.514   0.917
 8401WAT     H125225   1.497   0.492   0.827
 8401WAT     H225226   1.546   0.606   0.913
 8402WAT      O25227   1.508   0.422   0.284
 8402WAT     H125228   1.561   0.373   0.221
 8402WAT     H225229   1.567   0.436   0.358
 8403WAT      O25230   1.526   0.431   0.636
 8403WAT     H125231   1.431   0.427   0.648
 8403WAT     H225232   1.544   0.522   0.613
 8404WAT      O25233   0.181   1.119   1.132
 8404WAT     H125234   0.177   1.082   1.220
 8404WAT     H225235   0.194   1.213   1.146
 8405WAT      O25236   0.551   1.274   0.692
 8405WAT     H125237   0.527   1.301   0.603
 8405WAT     H225238   0.645   1.292   0.698
 8406WAT      O25239   1.677   1.476   0.772
 8406WAT     H125240   1.628   1.516   0.701
 8406WAT     H225241   1.616   1.414   0.812
 8407WAT      O25242   1.446   1.541   0.500
 8407WAT     H125243   1.400   1.616   0.463
 8407WAT     H225244   1.383   1.469   0.494
 8408WAT      O25245   0.489   1.372   0.418
 8408WAT     H125246   0.540   1.310   0.365
 8408WAT     H225247   0.554   1.422   0.467
 8409WAT      O25248   0.763   1.461   0.500
 8409WAT     H125249   0.791   1.435   0.413
 8409WAT     H225250   0.814   1.405   0.559
 8410WAT      O25251   0.769   1.553   1.237
 8410WAT     H125252   0.862   1.529   1.241
 8410WAT     H225253   0.768   1.636   1.189
 8411WAT      O25254   1.426   1.475   1.219
 8411WAT     H125255   1.505   1.426   1.199
 8411WAT     H225256   1.455   1.543   1.280
   7.15464   6.91473   6.30930
