default_name
 25256
  32.3053757  34.5489533  31.6241339  32.9883757  35.7649533  31.6251339
  34.3913757  35.7969533  31.6191339  35.0953757  37.0089533  31.6151339
  36.4923757  37.0229533  31.6131339  37.2223757  35.8259533  31.6151339
  38.6253757  35.8229533  31.6171339  39.3333757  34.6219533  31.6181339
  38.6493757  33.4069533  31.6161339  37.2473757  33.3769533  31.6141339
  36.5433757  32.1649533  31.6131339  35.1463757  32.1499533  31.6121339
  34.4173757  33.3469533  31.6151339  33.0143757  33.3489533  31.6171339
  35.1113757  34.5799533  31.6161339  36.5283757  34.5939533  31.6151339
  31.2183757  34.5379533  31.6291339  32.4163757  36.6899533  31.6321339
  34.5613757  37.9559533  31.6141339  37.0073757  37.9809533  31.6101339
  39.1773757  36.7599533  31.6191339  40.4203757  34.6329533  31.6211339
  39.2203757  32.4809533  31.6161339  37.0773757  31.2179533  31.6121339
  34.6313757  31.1919533  31.6111339  32.4623757  32.4109533  31.6151339
  66.7096460  61.9501270  58.1733160  66.6290510  61.0355880  57.9024870
  66.2960880  62.4468340  57.4672870  64.8414500  63.7280290  60.0542430
  64.0656600  63.2480730  60.3441000  65.4927430  63.0485940  59.8798590
  57.2672280  59.0001990  54.7160580  56.3788980  59.3417960  54.6140460
  57.5513470  58.8002310  53.8241410  55.2305290  61.6007640  60.6000280
  55.8021400  60.8329840  60.6003920  55.2306830  61.8996400  59.6906890
  64.2823490  66.4037480  60.0612590  64.2131770  65.4627420  59.9001720
  65.0443350  66.4938890  60.6335160  65.3128660  59.2107860  60.2881520
  65.6893480  58.3379740  60.1755190  65.2148170  59.5466560  59.3971960
  59.4433670  57.5833490  55.7498960  59.5500420  58.4837220  56.0567720
  58.5326030  57.5351460  55.4593610  61.2841400  60.5519860  60.0824140
  61.7919620  61.0500830  60.7229160  61.8154640  59.7755060  59.9063500
  65.9548590  65.3037730  55.8477460  65.3365860  65.7687180  55.2840180
  66.4671840  65.9965210  56.2646970  69.3314260  58.6458680  59.9937400
  68.6269830  58.9343570  60.5740510  69.6926420  59.4558790  59.6336960
  55.3231790  65.9894260  53.2217090  54.9459770  66.4781360  52.4901990
  55.5804860  66.6619540  53.8523620  62.9320720  54.3910650  58.6802600
  63.2395700  53.8357540  57.9638100  62.0021420  54.5255110  58.4975590
  69.7781200  66.8294160  56.0600230  69.6677530  65.8868490  56.1849650
  69.7749450  67.1909800  56.9462990  65.3201480  62.4559480  55.4162720
  64.3930760  62.3896860  55.6451190  65.4726300  63.3939610  55.3017960
  65.3070560  58.7276480  52.4129880  64.3674230  58.8890440  52.4982340
  65.6253820  59.4462160  51.8665870  69.3498770  64.0179780  55.9197970
  68.7311190  63.6799330  55.2724270  69.3323220  63.3739540  56.6277160
  60.9258120  62.9824220  58.1982450  60.5215120  62.2701470  57.7028350
  61.0121240  62.6377460  59.0870490  61.3939820  66.6691780  60.3621660
  61.0968110  66.0637250  59.6829440  62.3439640  66.7069090  60.2511020
  67.5263470  63.2566590  52.9270720  67.9656750  62.4189020  52.7808540
  68.2391890  63.8895990  53.0134860  57.6262750  61.8769200  55.6989100
  57.5060350  62.6031290  55.0870370  57.3163640  61.1072110  55.2217010
  56.5095750  66.7484530  57.9163920  56.1023830  66.8899120  57.0617520
  57.4008760  66.4644690  57.7135130  60.0926410  55.2204270  59.0812770
  59.6494560  56.0013810  58.7497290  60.6511400  55.5434160  59.7883710
  63.2085230  54.8414970  53.9618600  62.5839410  54.8374840  54.6871910
  63.1215350  53.9745930  53.5654570  62.1302310  55.7651600  60.9402370
  62.4274640  56.6714430  60.8594390  62.6787870  55.2770380  60.3261940
  59.8840630  60.3437840  56.8094020  59.6581550  60.1275010  57.7140640
  59.1033160  60.7766300  56.4639990  67.1138390  60.3501210  55.4084670
  66.5147280  61.0737010  55.2248290  67.6618000  60.2877990  54.6261120
  65.7203260  58.9864750  57.4387950  66.1132830  59.3036950  56.6256640
  66.0820110  58.1076630  57.5532470  54.7567430  55.5765550  59.6618150
  54.4680480  56.1468410  60.3743130  55.5013190  55.0970000  60.0249380
  54.9437660  59.5185670  50.8720870  54.8612330  60.4616430  51.0135860
  54.5920720  59.3760580  49.9933220  62.7435790  58.2524700  59.9391220
  62.7471850  57.8114650  59.0895760  63.6386910  58.5742030  60.0463040
  58.5938170  58.1351190  58.8985430  58.2538220  58.6126420  59.6552480
  57.8315490  57.6816310  58.5386530  62.8055940  59.2536780  52.9297980
  62.9268760  59.2123260  53.8783800  62.4204450  60.1160930  52.7744710
  61.8177440  61.5637920  52.3281280  61.2494340  61.1156170  51.7017190
  62.5266440  61.9230700  51.7946430  55.9084250  57.0570170  57.8150100
  55.6231170  56.6925840  58.6528720  55.8463110  56.3250630  57.2013240
  59.3624920  65.5596110  54.6007690  58.5887180  65.0193730  54.4406410
  60.0919550  65.0402720  54.2625450  65.5822840  55.9499430  54.5363470
  64.7687450  55.4512600  54.4608780  65.3884790  56.7897680  54.1199820
  68.2971230  60.3219080  52.8325630  69.1850850  60.6336310  52.6576970
  68.2676320  59.4491330  52.4406210  59.4062320  65.2276490  58.2386500
  59.9240990  64.4244750  58.1843390  58.9546340  65.1655630  59.0803330
  64.2931820  66.4942770  53.5113800  64.6347520  67.2385000  53.0157120
  63.4644530  66.8073890  53.8738630  67.1759230  65.8158610  58.8759310
  67.5283050  65.2186740  58.2160680  66.2921560  65.4902840  59.0467560
  63.2622510  66.5756300  56.2829720  63.9493640  67.1225510  56.6637310
  62.4754930  67.1197030  56.3179330  55.4014910  62.1929120  51.7746800
  56.2709760  62.4753920  52.0582720  54.9105230  63.0064990  51.6595610
  62.5649720  63.5802330  55.8955080  63.0212500  64.3907580  56.1215270
  62.2137930  63.2625470  56.7273570  58.4661500  53.9239980  56.3677600
  58.3376130  53.9157880  57.3162520  57.6423520  54.2623070  56.0168610
  57.3861420  64.0102590  53.9028860  56.7789370  64.7501490  53.9124160
  57.8610770  64.1001950  53.0767060  62.2940270  59.4096300  55.8031190
  61.5856420  59.8782640  56.2444800  62.5784750  58.7518310  56.4376380
  66.3255700  56.1346960  57.2426980  66.2023480  56.1533090  56.2936490
  67.2740260  56.1825900  57.3625380  60.4975290  57.7181380  53.1781900
  61.3465820  58.1551530  53.1122090  60.1306560  58.0301640  54.0053960
  69.4185070  62.2894140  58.0913470  68.4775210  62.3044370  58.2661160
  69.7329140  61.5030100  58.5373770  59.3966710  63.9713740  51.6517430
  60.1629980  63.8595100  52.2142860  59.4741400  63.2751710  50.9994200
  58.0913470  61.4038810  52.3350320  58.1717060  60.4566320  52.4467720
  58.9833220  61.7345690  52.4410980  62.5207890  65.9467920  51.1252780
  62.4158530  65.3320270  51.8514160  62.3532110  65.4233810  50.3415790
  65.7610620  65.0087950  51.7294770  65.2120720  65.4557250  52.3737510
  66.3829880  64.5037200  52.2532440  61.4285740  63.9678870  53.6260070
  61.8502160  63.8018740  54.4691460  61.5536580  63.1579100  53.1315210
  63.9413380  62.9916480  50.8737170  64.4619040  62.2765500  50.5078320
  64.5881780  63.6302350  51.1737680  60.3244640  60.0412100  50.5718230
  60.1233700  59.1779460  50.9331570  60.1536690  59.9545460  49.6339830
  67.8032950  54.8520330  53.1005110  68.0835240  54.0088230  53.4564530
  67.0298680  55.0843440  53.6143860  59.1227440  57.1412720  50.5596110
  59.4253340  57.1480150  49.6515260  59.8622030  56.7910580  51.0563770
  62.3412370  56.0847340  51.5452310  61.9934370  55.4071330  50.9654760
  62.5425140  55.6236850  52.3595700  58.1457570  66.4455140  51.3925910
  58.5832440  66.9884810  52.0483490  58.6305300  65.6202090  51.4022250
  55.6818010  62.6134990  57.9416680  55.0266850  62.3446630  57.2976380
  56.5195960  62.5039470  57.4918660  68.6308450  57.4076280  52.1635170
  69.0493330  57.2207260  51.3231830  68.3244510  56.5555330  52.4738100
  54.8956090  59.8233920  53.8842010  53.9920170  60.0864120  53.7093670
  55.3796710  60.0945090  53.1041970  57.4383300  58.8799460  51.7936390
  58.1475000  58.4582680  51.3083670  56.7223240  58.9474690  51.1619740
  57.0857460  54.9338790  50.8339040  57.8085590  55.4747730  51.1520260
  57.3581980  54.6602210  49.9580580  56.5104300  54.9732050  54.4274610
  57.2683660  55.0860930  53.8538640  56.0481470  55.8101250  54.3818040
  63.0518110  57.0871320  57.4176920  62.2392620  56.7128210  57.0772800
  63.5559750  56.3316400  57.7198110  67.5543090  53.7513770  58.6559990
  68.1572460  54.3233980  59.1308510  66.8136080  54.3153210  58.4333890
  58.8829450  55.4996100  52.9676580  59.4122210  54.7125900  52.8384530
  59.5157770  56.1787290  53.2012110  61.0767290  55.2371240  56.0221970
  60.4470030  54.5358550  56.1892100  60.5372430  55.9975370  55.8055130
  66.7096460  61.9501270  39.3989670  66.6290510  61.0355880  39.1281380
  66.2960880  62.4468340  38.6929380  64.8414500  63.7280290  41.2798940
  64.0656600  63.2480730  41.5697510  65.4927430  63.0485940  41.1055100
  58.8580330  64.0400100  42.1574700  58.0265210  63.7848810  42.5571210
  59.4661310  64.1110870  42.8932620  57.2672280  59.0001990  35.9417090
  56.3788980  59.3417960  35.8396970  57.5513470  58.8002310  35.0497920
  55.2305290  61.6007640  41.8256790  55.8021400  60.8329840  41.8260430
  55.2306830  61.8996400  40.9163400  64.2823490  66.4037480  41.2869100
  64.2131770  65.4627420  41.1258230  65.0443350  66.4938890  41.8591670
  56.4730160  57.0092000  43.6125720  56.2933000  56.1117750  43.8928480
  56.0710240  57.5563870  44.2872670  65.3128660  59.2107860  41.5138030
  65.6893480  58.3379740  41.4011700  65.2148170  59.5466560  40.6228470
  59.4433670  57.5833490  36.9755470  59.5500420  58.4837220  37.2824230
  58.5326030  57.5351460  36.6850120  57.0916830  59.5052500  42.2208060
  57.7726940  59.7690870  42.8395460  56.7764880  58.6653370  42.5546070
  61.2841400  60.5519860  41.3080650  61.7919620  61.0500830  41.9485670
  61.8154640  59.7755060  41.1320010  59.5677500  55.1918420  45.5744070
  59.5695940  55.7090810  44.7689970  58.7381810  54.7148600  45.5514000
  65.9548590  65.3037730  37.0733970  65.3365860  65.7687180  36.5096690
  66.4671840  65.9965210  37.4903480  60.8180350  64.8313600  43.7517570
  60.4849730  65.4582520  44.3938640  60.9947030  65.3575480  42.9719240
  69.3314260  58.6458680  41.2193910  68.6269830  58.9343570  41.7997020
  69.6926420  59.4558790  40.8593470  59.2492830  56.9028380  43.5814520
  59.5909640  57.7470430  43.2868390  58.3108640  57.0512120  43.6979860
  55.3231790  65.9894260  34.4473600  54.9459770  66.4781360  33.7158500
  55.5804860  66.6619540  35.0780130  62.9320720  54.3910650  39.9059110
  63.2395700  53.8357540  39.1894610  62.0021420  54.5255110  39.7232100
  69.7781200  66.8294160  37.2856740  69.6677530  65.8868490  37.4106160
  69.7749450  67.1909800  38.1719500  67.8821220  65.0107780  43.5249180
  68.2990010  64.7967890  42.6902640  68.6061040  65.2680570  44.0957800
  65.3201480  62.4559480  36.6419230  64.3930760  62.3896860  36.8707700
  65.4726300  63.3939610  36.5274470  65.3070560  58.7276480  33.6386390
  64.3674230  58.8890440  33.7238850  65.6253820  59.4462160  33.0922380
  69.3498770  64.0179780  37.1454480  68.7311190  63.6799330  36.4980780
  69.3323220  63.3739540  37.8533670  68.7925330  60.1964320  44.5620290
  68.3796510  61.0218030  44.8160280  68.0601280  59.6109360  44.3696650
  60.9258120  62.9824220  39.4238960  60.5215120  62.2701470  38.9284860
  61.0121240  62.6377460  40.3127000  61.3939820  66.6691780  41.5878170
  61.0968110  66.0637250  40.9085950  62.3439640  66.7069090  41.4767530
  59.6386740  59.7567430  43.2038000  60.1901330  59.8662770  42.4291250
  60.1530250  60.1305030  43.9193230  60.4858250  66.4073470  48.2385970
  59.5886780  66.6313440  48.4859370  60.5111120  66.5308410  47.2897370
  67.5263470  63.2566590  34.1527230  67.9656750  62.4189020  34.0065050
  68.2391890  63.8895990  34.2391370  59.3129470  63.2786790  46.8143340
  59.1737240  64.1509590  47.1830740  58.4310830  62.9359600  46.6691280
  57.6262750  61.8769200  36.9245610  57.5060350  62.6031290  36.3126880
  57.3163640  61.1072110  36.4473520  55.2648120  65.0484340  42.7314250
  55.3428540  65.1833110  41.7869970  55.8789800  64.3400230  42.9242370
  56.5095750  66.7484530  39.1420430  56.1023830  66.8899120  38.2874030
  57.4008760  66.4644690  38.9391640  55.3207640  66.0898510  45.2708710
  55.4838680  65.6203870  44.4528080  55.7860090  65.5822070  45.9357550
  60.0926410  55.2204270  40.3069280  59.6494560  56.0013810  39.9753800
  60.6511400  55.5434160  41.0140220  64.3796220  58.0872790  45.9104600
  63.9175590  58.2955810  46.7224540  63.9774330  57.2732140  45.6075270
  69.3800730  59.3081740  47.0401260  68.5294320  59.0087490  47.3610330
  69.2202520  59.5523750  46.1285080  66.4750440  60.8083490  49.1400050
  66.8003850  59.9747240  48.8002280  67.2630770  61.3312010  49.2878380
  63.2085230  54.8414970  35.1875110  62.5839410  54.8374840  35.9128420
  63.1215350  53.9745930  34.7911080  62.1302310  55.7651600  42.1658880
  62.4274640  56.6714430  42.0850900  62.6787870  55.2770380  41.5518450
  59.8840630  60.3437840  38.0350530  59.6581550  60.1275010  38.9397150
  59.1033160  60.7766300  37.6896500  67.1138390  60.3501210  36.6341180
  66.5147280  61.0737010  36.4504800  67.6618000  60.2877990  35.8517630
  62.3239840  61.2423420  48.7010800  62.2283440  60.3018150  48.5511200
  63.1671820  61.4638490  48.3058870  65.7203260  58.9864750  38.6644460
  66.1132830  59.3036950  37.8513150  66.0820110  58.1076630  38.7788980
  57.4550380  57.6537090  46.8544580  57.0613770  58.5012300  47.0617360
  56.7668780  57.0163460  47.0453220  64.0295430  57.7372060  49.9241320
  63.3393750  57.5444260  50.5587410  64.7727730  58.0206700  50.4565620
  54.7567430  55.5765550  40.8874660  54.4680480  56.1468410  41.5999640
  55.5013190  55.0970000  41.2505890  54.9437660  59.5185670  32.0977380
  54.8612330  60.4616430  32.2392370  54.5920720  59.3760580  31.2189730
  66.3058400  61.5770500  42.7595240  65.5739520  62.0857310  43.1085340
  65.9082740  60.7600480  42.4584020  62.7435790  58.2524700  41.1647730
  62.7471850  57.8114650  40.3152270  63.6386910  58.5742030  41.2719550
  58.5938170  58.1351190  40.1241940  58.2538220  58.6126420  40.8808990
  57.8315490  57.6816310  39.7643040  62.8055940  59.2536780  34.1554490
  62.9268760  59.2123260  35.1040310  62.4204450  60.1160930  34.0001220
  66.7684310  57.0304180  42.1718180  66.7857050  57.4812830  43.0160030
  66.5199890  56.1309820  42.3851620  61.8177440  61.5637920  33.5537790
  61.2494340  61.1156170  32.9273700  62.5266440  61.9230700  33.0202940
  56.8946620  65.4649940  47.4304520  56.5101410  64.8243610  48.0287480
  57.2058810  66.1686060  47.9999250  63.0443760  62.3126480  42.9113140
  63.4113890  61.8385050  43.6574480  62.8548820  63.1868050  43.2521480
  55.9084250  57.0570170  39.0406610  55.6231170  56.6925840  39.8785230
  55.8463110  56.3250630  38.4269750  60.8343130  61.3535120  45.2297350
  60.5300200  62.2327100  45.4547710  61.7889590  61.4134910  45.2654790
  59.3624920  65.5596110  35.8264200  58.5887180  65.0193730  35.6662920
  60.0919550  65.0402720  35.4881960  65.5822840  55.9499430  35.7619980
  64.7687450  55.4512600  35.6865290  65.3884790  56.7897680  35.3456330
  65.5031700  64.6270530  47.5059590  65.4369010  63.7066200  47.2517180
  64.8736840  64.7245970  48.2204230  68.2971230  60.3219080  34.0582140
  69.1850850  60.6336310  33.8833480  68.2676320  59.4491330  33.6662720
  59.4062320  65.2276490  39.4643010  59.9240990  64.4244750  39.4099900
  58.9546340  65.1655630  40.3059840  64.2931820  66.4942770  34.7370310
  64.6347520  67.2385000  34.2413630  63.4644530  66.8073890  35.0995140
  56.8906860  62.1937860  46.3768710  56.5321800  62.8591710  46.9642050
  56.5961420  61.3621410  46.7481330  60.0919980  62.6522100  49.2608260
  59.7920120  62.7979280  48.3636080  60.8631220  62.0927390  49.1681650
  67.1759230  65.8158610  40.1015820  67.5283050  65.2186740  39.4417190
  66.2921560  65.4902840  40.2724070  63.2622510  66.5756300  37.5086230
  63.9493640  67.1225510  37.8893820  62.4754930  67.1197030  37.5435840
  55.4014910  62.1929120  33.0003310  56.2709760  62.4753920  33.2839230
  54.9105230  63.0064990  32.8852120  62.5649720  63.5802330  37.1211590
  63.0212500  64.3907580  37.3471780  62.2137930  63.2625470  37.9530080
  58.4661500  53.9239980  37.5934110  58.3376130  53.9157880  38.5419030
  57.6423520  54.2623070  37.2425120  55.4655430  55.6831100  47.0540810
  54.7513950  55.8828020  47.6593420  55.8850470  54.9070670  47.4255610
  57.3861420  64.0102590  35.1285370  56.7789370  64.7501490  35.1380670
  57.8610770  64.1001950  34.3023570  66.9594210  58.1753410  44.8042260
  67.3275030  57.3548620  45.1321830  66.0992410  58.2355300  45.2197910
  62.2940270  59.4096300  37.0287700  61.5856420  59.8782640  37.4701310
  62.5784750  58.7518310  37.6632890  63.9196200  60.8293000  45.0280230
  64.4181450  61.3038820  45.6932080  64.0619150  59.9056520  45.2350260
  66.3255700  56.1346960  38.4683490  66.2023480  56.1533090  37.5193000
  67.2740260  56.1825900  38.5881890  60.4975290  57.7181380  34.4038410
  61.3465820  58.1551530  34.3378600  60.1306560  58.0301640  35.2310470
  69.4185070  62.2894140  39.3169980  68.4775210  62.3044370  39.4917670
  69.7329140  61.5030100  39.7630280  59.3966710  63.9713740  32.8773940
  60.1629980  63.8595100  33.4399370  59.4741400  63.2751710  32.2250710
  58.0913470  61.4038810  33.5606830  58.1717060  60.4566320  33.6724230
  58.9833220  61.7345690  33.6667490  66.7351090  66.8460140  49.8002360
  66.1289250  66.8691740  49.0598110  66.4305200  66.1143180  50.3369610
  55.6184270  63.2253730  48.7963000  56.1223290  62.6461010  49.3679230
  54.8791690  63.5093960  49.3339370  62.5207890  65.9467920  32.3509290
  62.4158530  65.3320270  33.0770670  62.3532110  65.4233810  31.5672300
  62.6722210  64.6324720  48.3298520  61.9067880  65.2009720  48.2453190
  62.8538170  64.3400930  47.4366750  65.7610620  65.0087950  32.9551280
  65.2120720  65.4557250  33.5994020  66.3829880  64.5037200  33.4788950
  57.6507350  61.3683320  49.6913070  57.6912690  61.0697190  50.5998300
  58.5052850  61.7690930  49.5320590  61.4285740  63.9678870  34.8516580
  61.8502160  63.8018740  35.6947970  61.5536580  63.1579100  34.3571720
  59.5913160  59.9475420  47.6587560  59.0609620  59.4566370  47.0310900
  60.2601230  60.3759620  47.1245490  63.9413380  62.9916480  32.0993680
  64.4619040  62.2765500  31.7334830  64.5881780  63.6302350  32.3994190
  68.4891220  64.4144880  47.4228750  68.9032240  64.5689960  48.2719170
  67.5542220  64.5400100  47.5854530  68.9613390  61.7541040  49.4267900
  69.5434160  60.9993360  49.3388380  69.1375160  62.2848480  48.6499380
  60.0785460  56.9137790  47.7384850  59.9842330  56.2958540  47.0135720
  59.4982850  57.6404080  47.5114760  62.8446900  55.4711030  44.7712240
  62.3964200  55.4935290  43.9257790  62.2112100  55.0730050  45.3682540
  63.2506450  64.3665360  45.3924680  63.6694560  65.2098090  45.2200920
  62.3315080  64.5037400  45.1631460  65.5870350  62.0981540  46.7762520
  65.7066560  61.5022680  47.5157360  66.4464350  62.1351230  46.3563820
  67.9258250  62.6518730  45.3525030  67.3993470  63.1761350  44.7490170
  68.2689590  63.2846120  45.9834760  60.3244640  60.0412100  31.7974740
  60.1233700  59.1779460  32.1588080  60.1536690  59.9545460  30.8596340
  62.3539120  58.6402890  48.0338340  62.9438810  58.3318740  48.7216160
  61.5359360  58.1682640  48.1898240  67.1732550  58.2568700  48.2671360
  66.4848070  57.5950240  48.2021350  67.8938570  57.8106970  48.7119820
  67.8032950  54.8520330  34.3261620  68.0835240  54.0088230  34.6821040
  67.0298680  55.0843440  34.8400370  59.1227440  57.1412720  31.7852620
  59.4253340  57.1480150  30.8771770  59.8622030  56.7910580  32.2820280
  62.3412370  56.0847340  32.7708820  61.9934370  55.4071330  32.1911270
  62.5425140  55.6236850  33.5852210  58.1457570  66.4455140  32.6182420
  58.5832440  66.9884810  33.2740000  58.6305300  65.6202090  32.6278760
  55.6818010  62.6134990  39.1673190  55.0266850  62.3446630  38.5232890
  56.5195960  62.5039470  38.7175170  68.6308450  57.4076280  33.3891680
  69.0493330  57.2207260  32.5488340  68.3244510  56.5555330  33.6994610
  56.7193940  62.9987560  43.7076530  57.0866980  62.9114960  44.5872550
  56.1504760  62.2354110  43.6083390  56.2709940  59.9096650  47.6134950
  55.3765990  59.8763410  47.9528660  56.8107490  60.1083440  48.3786200
  54.8956090  59.8233920  35.1098520  53.9920170  60.0864120  34.9350180
  55.3796710  60.0945090  34.3298480  57.4383300  58.8799460  33.0192900
  58.1475000  58.4582680  32.5340180  56.7223240  58.9474690  32.3876250
  57.0857460  54.9338790  32.0595550  57.8085590  55.4747730  32.3776770
  57.3581980  54.6602210  31.1837090  56.7749650  54.1844980  41.9618170
  57.4225840  53.6342360  41.5213330  57.1951490  54.4388130  42.7833980
  56.5281650  54.3400650  44.7043490  56.1796470  54.7964470  45.4701670
  56.1969350  53.4457780  44.7865920  64.0406470  55.5312530  48.2262910
  63.9795360  56.1234360  48.9758320  64.9806850  55.4238490  48.0813170
  66.6781030  55.1882590  47.8655200  67.2921440  55.5061880  47.2036280
  67.2230590  54.7031180  48.4851060  57.2002290  53.8676850  47.9794260
  57.7485280  53.6864900  47.2160370  57.2657600  53.0770960  48.5150570
  67.4189070  53.7514730  44.1924490  66.5448910  54.0849840  43.9897420
  67.3099820  53.2787910  45.0176360  68.3261050  55.9585600  45.5766210
  67.9974410  55.1437360  45.1967940  69.2743350  55.9155410  45.4531900
  65.1663890  54.6684570  43.1317400  64.3835680  55.1430070  43.4114160
  64.8726820  53.7639400  43.0230580  56.5104300  54.9732050  35.6531120
  57.2683660  55.0860930  35.0795150  56.0481470  55.8101250  35.6074550
  63.0518110  57.0871320  38.6433430  62.2392620  56.7128210  38.3029310
  63.5559750  56.3316400  38.9454620  67.5543090  53.7513770  39.8816500
  68.1572460  54.3233980  40.3565020  66.8136080  54.3153210  39.6590400
  58.8829450  55.4996100  34.1933090  59.4122210  54.7125900  34.0641040
  59.5157770  56.1787290  34.4268620  61.0767290  55.2371240  37.2478480
  60.4470030  54.5358550  37.4148610  60.5372430  55.9975370  37.0311640
  61.2022850  54.5155220  49.6830970  60.9207120  55.0188820  48.9191790
  61.5842550  53.7176970  49.3173100  67.8038310  53.9308800  50.2611440
  67.6903760  54.2503410  51.1562960  68.6208050  54.3321310  49.9648720
  66.7096460  61.9501270  20.6246180  66.6290510  61.0355880  20.3537890
  66.2960880  62.4468340  19.9185890  64.8414500  63.7280290  22.5055450
  64.0656600  63.2480730  22.7954020  65.4927430  63.0485940  22.3311610
  58.8580330  64.0400100  23.3831210  58.0265210  63.7848810  23.7827720
  59.4661310  64.1110870  24.1189130  57.2672280  59.0001990  17.1673600
  56.3788980  59.3417960  17.0653480  57.5513470  58.8002310  16.2754430
  55.2305290  61.6007640  23.0513300  55.8021400  60.8329840  23.0516940
  55.2306830  61.8996400  22.1419910  64.2823490  66.4037480  22.5125610
  64.2131770  65.4627420  22.3514740  65.0443350  66.4938890  23.0848180
  56.4730160  57.0092000  24.8382230  56.2933000  56.1117750  25.1184990
  56.0710240  57.5563870  25.5129180  65.3128660  59.2107860  22.7394540
  65.6893480  58.3379740  22.6268210  65.2148170  59.5466560  21.8484980
  59.4433670  57.5833490  18.2011980  59.5500420  58.4837220  18.5080740
  58.5326030  57.5351460  17.9106630  57.0916830  59.5052500  23.4464570
  57.7726940  59.7690870  24.0651970  56.7764880  58.6653370  23.7802580
  61.2841400  60.5519860  22.5337160  61.7919620  61.0500830  23.1742180
  61.8154640  59.7755060  22.3576520  59.5677500  55.1918420  26.8000580
  59.5695940  55.7090810  25.9946480  58.7381810  54.7148600  26.7770510
  65.9548590  65.3037730  18.2990480  65.3365860  65.7687180  17.7353200
  66.4671840  65.9965210  18.7159990  60.8180350  64.8313600  24.9774080
  60.4849730  65.4582520  25.6195150  60.9947030  65.3575480  24.1975750
  69.3314260  58.6458680  22.4450420  68.6269830  58.9343570  23.0253530
  69.6926420  59.4558790  22.0849980  59.2492830  56.9028380  24.8071030
  59.5909640  57.7470430  24.5124900  58.3108640  57.0512120  24.9236370
  55.3231790  65.9894260  15.6730110  54.9459770  66.4781360  14.9415010
  55.5804860  66.6619540  16.3036640  62.9320720  54.3910650  21.1315620
  63.2395700  53.8357540  20.4151120  62.0021420  54.5255110  20.9488610
  69.7781200  66.8294160  18.5113250  69.6677530  65.8868490  18.6362670
  69.7749450  67.1909800  19.3976010  67.8821220  65.0107780  24.7505690
  68.2990010  64.7967890  23.9159150  68.6061040  65.2680570  25.3214310
  65.3201480  62.4559480  17.8675740  64.3930760  62.3896860  18.0964210
  65.4726300  63.3939610  17.7530980  65.3070560  58.7276480  14.8642900
  64.3674230  58.8890440  14.9495360  65.6253820  59.4462160  14.3178890
  69.3498770  64.0179780  18.3710990  68.7311190  63.6799330  17.7237290
  69.3323220  63.3739540  19.0790180  68.7925330  60.1964320  25.7876800
  68.3796510  61.0218030  26.0416790  68.0601280  59.6109360  25.5953160
  60.9258120  62.9824220  20.6495470  60.5215120  62.2701470  20.1541370
  61.0121240  62.6377460  21.5383510  61.3939820  66.6691780  22.8134680
  61.0968110  66.0637250  22.1342460  62.3439640  66.7069090  22.7024040
  59.6386740  59.7567430  24.4294510  60.1901330  59.8662770  23.6547760
  60.1530250  60.1305030  25.1449740  60.4858250  66.4073470  29.4642480
  59.5886780  66.6313440  29.7115880  60.5111120  66.5308410  28.5153880
  67.5263470  63.2566590  15.3783740  67.9656750  62.4189020  15.2321560
  68.2391890  63.8895990  15.4647880  59.3129470  63.2786790  28.0399850
  59.1737240  64.1509590  28.4087250  58.4310830  62.9359600  27.8947790
  57.6262750  61.8769200  18.1502120  57.5060350  62.6031290  17.5383390
  57.3163640  61.1072110  17.6730030  55.2648120  65.0484340  23.9570760
  55.3428540  65.1833110  23.0126480  55.8789800  64.3400230  24.1498880
  56.5095750  66.7484530  20.3676940  56.1023830  66.8899120  19.5130540
  57.4008760  66.4644690  20.1648150  55.3207640  66.0898510  26.4965220
  55.4838680  65.6203870  25.6784590  55.7860090  65.5822070  27.1614060
  60.0926410  55.2204270  21.5325790  59.6494560  56.0013810  21.2010310
  60.6511400  55.5434160  22.2396730  64.3796220  58.0872790  27.1361110
  63.9175590  58.2955810  27.9481050  63.9774330  57.2732140  26.8331780
  69.3800730  59.3081740  28.2657770  68.5294320  59.0087490  28.5866840
  69.2202520  59.5523750  27.3541590  66.4750440  60.8083490  30.3656560
  66.8003850  59.9747240  30.0258790  67.2630770  61.3312010  30.5134890
  63.2085230  54.8414970  16.4131620  62.5839410  54.8374840  17.1384930
  63.1215350  53.9745930  16.0167590  62.1302310  55.7651600  23.3915390
  62.4274640  56.6714430  23.3107410  62.6787870  55.2770380  22.7774960
  59.8840630  60.3437840  19.2607040  59.6581550  60.1275010  20.1653660
  59.1033160  60.7766300  18.9153010  67.1138390  60.3501210  17.8597690
  66.5147280  61.0737010  17.6761310  67.6618000  60.2877990  17.0774140
  62.3239840  61.2423420  29.9267310  62.2283440  60.3018150  29.7767710
  63.1671820  61.4638490  29.5315380  65.7203260  58.9864750  19.8900970
  66.1132830  59.3036950  19.0769660  66.0820110  58.1076630  20.0045490
  57.4550380  57.6537090  28.0801090  57.0613770  58.5012300  28.2873870
  56.7668780  57.0163460  28.2709730  64.0295430  57.7372060  31.1497830
  63.3393750  57.5444260  31.7843920  64.7727730  58.0206700  31.6822130
  54.7567430  55.5765550  22.1131170  54.4680480  56.1468410  22.8256150
  55.5013190  55.0970000  22.4762400  54.9437660  59.5185670  13.3233890
  54.8612330  60.4616430  13.4648880  54.5920720  59.3760580  12.4446240
  66.3058400  61.5770500  23.9851750  65.5739520  62.0857310  24.3341850
  65.9082740  60.7600480  23.6840530  62.7435790  58.2524700  22.3904240
  62.7471850  57.8114650  21.5408780  63.6386910  58.5742030  22.4976060
  58.5938170  58.1351190  21.3498450  58.2538220  58.6126420  22.1065500
  57.8315490  57.6816310  20.9899550  62.8055940  59.2536780  15.3811000
  62.9268760  59.2123260  16.3296820  62.4204450  60.1160930  15.2257730
  66.7684310  57.0304180  23.3974690  66.7857050  57.4812830  24.2416540
  66.5199890  56.1309820  23.6108130  61.8177440  61.5637920  14.7794300
  61.2494340  61.1156170  14.1530210  62.5266440  61.9230700  14.2459450
  56.8946620  65.4649940  28.6561030  56.5101410  64.8243610  29.2543990
  57.2058810  66.1686060  29.2255760  63.0443760  62.3126480  24.1369650
  63.4113890  61.8385050  24.8830990  62.8548820  63.1868050  24.4777990
  55.9084250  57.0570170  20.2663120  55.6231170  56.6925840  21.1041740
  55.8463110  56.3250630  19.6526260  60.8343130  61.3535120  26.4553860
  60.5300200  62.2327100  26.6804220  61.7889590  61.4134910  26.4911300
  59.3624920  65.5596110  17.0520710  58.5887180  65.0193730  16.8919430
  60.0919550  65.0402720  16.7138470  65.5822840  55.9499430  16.9876490
  64.7687450  55.4512600  16.9121800  65.3884790  56.7897680  16.5712840
  65.5031700  64.6270530  28.7316100  65.4369010  63.7066200  28.4773690
  64.8736840  64.7245970  29.4460740  68.2971230  60.3219080  15.2838650
  69.1850850  60.6336310  15.1089990  68.2676320  59.4491330  14.8919230
  59.4062320  65.2276490  20.6899520  59.9240990  64.4244750  20.6356410
  58.9546340  65.1655630  21.5316350  64.2931820  66.4942770  15.9626820
  64.6347520  67.2385000  15.4670140  63.4644530  66.8073890  16.3251650
  56.8906860  62.1937860  27.6025220  56.5321800  62.8591710  28.1898560
  56.5961420  61.3621410  27.9737840  60.0919980  62.6522100  30.4864770
  59.7920120  62.7979280  29.5892590  60.8631220  62.0927390  30.3938160
  67.1759230  65.8158610  21.3272330  67.5283050  65.2186740  20.6673700
  66.2921560  65.4902840  21.4980580  63.2622510  66.5756300  18.7342740
  63.9493640  67.1225510  19.1150330  62.4754930  67.1197030  18.7692350
  55.4014910  62.1929120  14.2259820  56.2709760  62.4753920  14.5095740
  54.9105230  63.0064990  14.1108630  62.5649720  63.5802330  18.3468100
  63.0212500  64.3907580  18.5728290  62.2137930  63.2625470  19.1786590
  58.4661500  53.9239980  18.8190620  58.3376130  53.9157880  19.7675540
  57.6423520  54.2623070  18.4681630  55.4655430  55.6831100  28.2797320
  54.7513950  55.8828020  28.8849930  55.8850470  54.9070670  28.6512120
  57.3861420  64.0102590  16.3541880  56.7789370  64.7501490  16.3637180
  57.8610770  64.1001950  15.5280080  66.9594210  58.1753410  26.0298770
  67.3275030  57.3548620  26.3578340  66.0992410  58.2355300  26.4454420
  62.2940270  59.4096300  18.2544210  61.5856420  59.8782640  18.6957820
  62.5784750  58.7518310  18.8889400  63.9196200  60.8293000  26.2536740
  64.4181450  61.3038820  26.9188590  64.0619150  59.9056520  26.4606770
  66.3255700  56.1346960  19.6940000  66.2023480  56.1533090  18.7449510
  67.2740260  56.1825900  19.8138400  60.4975290  57.7181380  15.6294920
  61.3465820  58.1551530  15.5635110  60.1306560  58.0301640  16.4566980
  69.4185070  62.2894140  20.5426490  68.4775210  62.3044370  20.7174180
  69.7329140  61.5030100  20.9886790  59.3966710  63.9713740  14.1030450
  60.1629980  63.8595100  14.6655880  59.4741400  63.2751710  13.4507220
  58.0913470  61.4038810  14.7863340  58.1717060  60.4566320  14.8980740
  58.9833220  61.7345690  14.8924000  66.7351090  66.8460140  31.0258870
  66.1289250  66.8691740  30.2854620  66.4305200  66.1143180  31.5626120
  55.6184270  63.2253730  30.0219510  56.1223290  62.6461010  30.5935740
  54.8791690  63.5093960  30.5595880  62.5207890  65.9467920  13.5765800
  62.4158530  65.3320270  14.3027180  62.3532110  65.4233810  12.7928810
  62.6722210  64.6324720  29.5555030  61.9067880  65.2009720  29.4709700
  62.8538170  64.3400930  28.6623260  65.7610620  65.0087950  14.1807790
  65.2120720  65.4557250  14.8250530  66.3829880  64.5037200  14.7045460
  57.6507350  61.3683320  30.9169580  57.6912690  61.0697190  31.8254810
  58.5052850  61.7690930  30.7577100  61.4285740  63.9678870  16.0773090
  61.8502160  63.8018740  16.9204480  61.5536580  63.1579100  15.5828230
  59.5913160  59.9475420  28.8844070  59.0609620  59.4566370  28.2567410
  60.2601230  60.3759620  28.3502000  63.9413380  62.9916480  13.3250190
  64.4619040  62.2765500  12.9591340  64.5881780  63.6302350  13.6250700
  68.4891220  64.4144880  28.6485260  68.9032240  64.5689960  29.4975680
  67.5542220  64.5400100  28.8111040  68.9613390  61.7541040  30.6524410
  69.5434160  60.9993360  30.5644890  69.1375160  62.2848480  29.8755890
  60.0785460  56.9137790  28.9641360  59.9842330  56.2958540  28.2392230
  59.4982850  57.6404080  28.7371270  62.8446900  55.4711030  25.9968750
  62.3964200  55.4935290  25.1514300  62.2112100  55.0730050  26.5939050
  63.2506450  64.3665360  26.6181190  63.6694560  65.2098090  26.4457430
  62.3315080  64.5037400  26.3887970  65.5870350  62.0981540  28.0019030
  65.7066560  61.5022680  28.7413870  66.4464350  62.1351230  27.5820330
  67.9258250  62.6518730  26.5781540  67.3993470  63.1761350  25.9746680
  68.2689590  63.2846120  27.2091270  60.3244640  60.0412100  13.0231250
  60.1233700  59.1779460  13.3844590  60.1536690  59.9545460  12.0852850
  62.3539120  58.6402890  29.2594850  62.9438810  58.3318740  29.9472670
  61.5359360  58.1682640  29.4154750  67.1732550  58.2568700  29.4927870
  66.4848070  57.5950240  29.4277860  67.8938570  57.8106970  29.9376330
  67.8032950  54.8520330  15.5518130  68.0835240  54.0088230  15.9077550
  67.0298680  55.0843440  16.0656880  59.1227440  57.1412720  13.0109130
  59.4253340  57.1480150  12.1028280  59.8622030  56.7910580  13.5076790
  62.3412370  56.0847340  13.9965330  61.9934370  55.4071330  13.4167780
  62.5425140  55.6236850  14.8108720  58.1457570  66.4455140  13.8438930
  58.5832440  66.9884810  14.4996510  58.6305300  65.6202090  13.8535270
  55.6818010  62.6134990  20.3929700  55.0266850  62.3446630  19.7489400
  56.5195960  62.5039470  19.9431680  68.6308450  57.4076280  14.6148190
  69.0493330  57.2207260  13.7744850  68.3244510  56.5555330  14.9251120
  56.7193940  62.9987560  24.9333040  57.0866980  62.9114960  25.8129060
  56.1504760  62.2354110  24.8339900  56.2709940  59.9096650  28.8391460
  55.3765990  59.8763410  29.1785170  56.8107490  60.1083440  29.6042710
  54.8956090  59.8233920  16.3355030  53.9920170  60.0864120  16.1606690
  55.3796710  60.0945090  15.5554990  57.4383300  58.8799460  14.2449410
  58.1475000  58.4582680  13.7596690  56.7223240  58.9474690  13.6132760
  57.0857460  54.9338790  13.2852060  57.8085590  55.4747730  13.6033280
  57.3581980  54.6602210  12.4093600  56.7749650  54.1844980  23.1874680
  57.4225840  53.6342360  22.7469840  57.1951490  54.4388130  24.0090490
  56.5281650  54.3400650  25.9300000  56.1796470  54.7964470  26.6958180
  56.1969350  53.4457780  26.0122430  64.0406470  55.5312530  29.4519420
  63.9795360  56.1234360  30.2014830  64.9806850  55.4238490  29.3069680
  66.6781030  55.1882590  29.0911710  67.2921440  55.5061880  28.4292790
  67.2230590  54.7031180  29.7107570  57.2002290  53.8676850  29.2050770
  57.7485280  53.6864900  28.4416880  57.2657600  53.0770960  29.7407080
  67.4189070  53.7514730  25.4181000  66.5448910  54.0849840  25.2153930
  67.3099820  53.2787910  26.2432870  68.3261050  55.9585600  26.8022720
  67.9974410  55.1437360  26.4224450  69.2743350  55.9155410  26.6788410
  65.1663890  54.6684570  24.3573910  64.3835680  55.1430070  24.6370670
  64.8726820  53.7639400  24.2487090  56.5104300  54.9732050  16.8787630
  57.2683660  55.0860930  16.3051660  56.0481470  55.8101250  16.8331060
  63.0518110  57.0871320  19.8689940  62.2392620  56.7128210  19.5285820
  63.5559750  56.3316400  20.1711130  67.5543090  53.7513770  21.1073010
  68.1572460  54.3233980  21.5821530  66.8136080  54.3153210  20.8846910
  58.8829450  55.4996100  15.4189600  59.4122210  54.7125900  15.2897550
  59.5157770  56.1787290  15.6525130  61.0767290  55.2371240  18.4734990
  60.4470030  54.5358550  18.6405120  60.5372430  55.9975370  18.2568150
  61.2022850  54.5155220  30.9087480  60.9207120  55.0188820  30.1448300
  61.5842550  53.7176970  30.5429610  67.8038310  53.9308800  31.4867950
  67.6903760  54.2503410  32.3819470  68.6208050  54.3321310  31.1905230
  64.8414500  63.7280290   3.7311960  64.0656600  63.2480730   4.0210530
  65.4927430  63.0485940   3.5568120  58.8580330  64.0400100   4.6087720
  58.0265210  63.7848810   5.0084230  59.4661310  64.1110870   5.3445640
  55.2305290  61.6007640   4.2769810  55.8021400  60.8329840   4.2773450
  55.2306830  61.8996400   3.3676420  64.2823490  66.4037480   3.7382120
  64.2131770  65.4627420   3.5771250  65.0443350  66.4938890   4.3104690
  56.4730160  57.0092000   6.0638740  56.2933000  56.1117750   6.3441500
  56.0710240  57.5563870   6.7385690  65.3128660  59.2107860   3.9651050
  65.6893480  58.3379740   3.8524720  65.2148170  59.5466560   3.0741490
  57.0916830  59.5052500   4.6721080  57.7726940  59.7690870   5.2908480
  56.7764880  58.6653370   5.0059090  61.2841400  60.5519860   3.7593670
  61.7919620  61.0500830   4.3998690  61.8154640  59.7755060   3.5833030
  59.5677500  55.1918420   8.0257090  59.5695940  55.7090810   7.2202990
  58.7381810  54.7148600   8.0027020  60.8180350  64.8313600   6.2030590
  60.4849730  65.4582520   6.8451660  60.9947030  65.3575480   5.4232260
  69.3314260  58.6458680   3.6706930  68.6269830  58.9343570   4.2510040
  69.6926420  59.4558790   3.3106490  59.2492830  56.9028380   6.0327540
  59.5909640  57.7470430   5.7381410  58.3108640  57.0512120   6.1492880
  67.8821220  65.0107780   5.9762200  68.2990010  64.7967890   5.1415660
  68.6061040  65.2680570   6.5470820  68.7925330  60.1964320   7.0133310
  68.3796510  61.0218030   7.2673300  68.0601280  59.6109360   6.8209670
  61.3939820  66.6691780   4.0391190  61.0968110  66.0637250   3.3598970
  62.3439640  66.7069090   3.9280550  59.6386740  59.7567430   5.6551020
  60.1901330  59.8662770   4.8804270  60.1530250  60.1305030   6.3706250
  60.4858250  66.4073470  10.6898990  59.5886780  66.6313440  10.9372390
  60.5111120  66.5308410   9.7410390  59.3129470  63.2786790   9.2656360
  59.1737240  64.1509590   9.6343760  58.4310830  62.9359600   9.1204300
  55.2648120  65.0484340   5.1827270  55.3428540  65.1833110   4.2382990
  55.8789800  64.3400230   5.3755390  55.3207640  66.0898510   7.7221730
  55.4838680  65.6203870   6.9041100  55.7860090  65.5822070   8.3870570
  60.0926410  55.2204270   2.7582300  59.6494560  56.0013810   2.4266820
  60.6511400  55.5434160   3.4653240  64.3796220  58.0872790   8.3617620
  63.9175590  58.2955810   9.1737560  63.9774330  57.2732140   8.0588290
  69.3800730  59.3081740   9.4914280  68.5294320  59.0087490   9.8123350
  69.2202520  59.5523750   8.5798100  66.4750440  60.8083490  11.5913070
  66.8003850  59.9747240  11.2515300  67.2630770  61.3312010  11.7391400
  62.1302310  55.7651600   4.6171900  62.4274640  56.6714430   4.5363920
  62.6787870  55.2770380   4.0031470  62.3239840  61.2423420  11.1523820
  62.2283440  60.3018150  11.0024220  63.1671820  61.4638490  10.7571890
  57.4550380  57.6537090   9.3057600  57.0613770  58.5012300   9.5130380
  56.7668780  57.0163460   9.4966240  64.0295430  57.7372060  12.3754340
  63.3393750  57.5444260  13.0100430  64.7727730  58.0206700  12.9078640
  54.7567430  55.5765550   3.3387680  54.4680480  56.1468410   4.0512660
  55.5013190  55.0970000   3.7018910  66.3058400  61.5770500   5.2108260
  65.5739520  62.0857310   5.5598360  65.9082740  60.7600480   4.9097040
  62.7435790  58.2524700   3.6160750  62.7471850  57.8114650   2.7665290
  63.6386910  58.5742030   3.7232570  58.5938170  58.1351190   2.5754960
  58.2538220  58.6126420   3.3322010  57.8315490  57.6816310   2.2156060
  66.7684310  57.0304180   4.6231200  66.7857050  57.4812830   5.4673050
  66.5199890  56.1309820   4.8364640  56.8946620  65.4649940   9.8817540
  56.5101410  64.8243610  10.4800500  57.2058810  66.1686060  10.4512270
  63.0443760  62.3126480   5.3626160  63.4113890  61.8385050   6.1087500
  62.8548820  63.1868050   5.7034500  60.8343130  61.3535120   7.6810370
  60.5300200  62.2327100   7.9060730  61.7889590  61.4134910   7.7167810
  65.5031700  64.6270530   9.9572610  65.4369010  63.7066200   9.7030200
  64.8736840  64.7245970  10.6717250  59.4062320  65.2276490   1.9156030
  59.9240990  64.4244750   1.8612920  58.9546340  65.1655630   2.7572860
  56.8906860  62.1937860   8.8281730  56.5321800  62.8591710   9.4155070
  56.5961420  61.3621410   9.1994350  60.0919980  62.6522100  11.7121280
  59.7920120  62.7979280  10.8149100  60.8631220  62.0927390  11.6194670
  67.1759230  65.8158610   2.5528840  67.5283050  65.2186740   1.8930210
  66.2921560  65.4902840   2.7237090  55.4655430  55.6831100   9.5053830
  54.7513950  55.8828020  10.1106440  55.8850470  54.9070670   9.8768630
  66.9594210  58.1753410   7.2555280  67.3275030  57.3548620   7.5834850
  66.0992410  58.2355300   7.6710930  63.9196200  60.8293000   7.4793250
  64.4181450  61.3038820   8.1445100  64.0619150  59.9056520   7.6863280
  69.4185070  62.2894140   1.7683000  68.4775210  62.3044370   1.9430690
  69.7329140  61.5030100   2.2143300  66.7351090  66.8460140  12.2515380
  66.1289250  66.8691740  11.5111130  66.4305200  66.1143180  12.7882630
  55.6184270  63.2253730  11.2476020  56.1223290  62.6461010  11.8192250
  54.8791690  63.5093960  11.7852390  62.6722210  64.6324720  10.7811540
  61.9067880  65.2009720  10.6966210  62.8538170  64.3400930   9.8879770
  57.6507350  61.3683320  12.1426090  57.6912690  61.0697190  13.0511320
  58.5052850  61.7690930  11.9833610  59.5913160  59.9475420  10.1100580
  59.0609620  59.4566370   9.4823920  60.2601230  60.3759620   9.5758510
  68.4891220  64.4144880   9.8741770  68.9032240  64.5689960  10.7232190
  67.5542220  64.5400100  10.0367550  68.9613390  61.7541040  11.8780920
  69.5434160  60.9993360  11.7901400  69.1375160  62.2848480  11.1012400
  60.0785460  56.9137790  10.1897870  59.9842330  56.2958540   9.4648740
  59.4982850  57.6404080   9.9627780  62.8446900  55.4711030   7.2225260
  62.3964200  55.4935290   6.3770810  62.2112100  55.0730050   7.8195560
  63.2506450  64.3665360   7.8437700  63.6694560  65.2098090   7.6713940
  62.3315080  64.5037400   7.6144480  65.5870350  62.0981540   9.2275540
  65.7066560  61.5022680   9.9670380  66.4464350  62.1351230   8.8076840
  67.9258250  62.6518730   7.8038050  67.3993470  63.1761350   7.2003190
  68.2689590  63.2846120   8.4347780  62.3539120  58.6402890  10.4851360
  62.9438810  58.3318740  11.1729180  61.5359360  58.1682640  10.6411260
  67.1732550  58.2568700  10.7184380  66.4848070  57.5950240  10.6534370
  67.8938570  57.8106970  11.1632840  56.7193940  62.9987560   6.1589550
  57.0866980  62.9114960   7.0385570  56.1504760  62.2354110   6.0596410
  56.2709940  59.9096650  10.0647970  55.3765990  59.8763410  10.4041680
  56.8107490  60.1083440  10.8299220  56.7749650  54.1844980   4.4131190
  57.4225840  53.6342360   3.9726350  57.1951490  54.4388130   5.2347000
  56.5281650  54.3400650   7.1556510  56.1796470  54.7964470   7.9214690
  56.1969350  53.4457780   7.2378940  64.0406470  55.5312530  10.6775930
  63.9795360  56.1234360  11.4271340  64.9806850  55.4238490  10.5326190
  66.6781030  55.1882590  10.3168220  67.2921440  55.5061880   9.6549300
  67.2230590  54.7031180  10.9364080  57.2002290  53.8676850  10.4307280
  57.7485280  53.6864900   9.6673390  57.2657600  53.0770960  10.9663590
  67.4189070  53.7514730   6.6437510  66.5448910  54.0849840   6.4410440
  67.3099820  53.2787910   7.4689380  68.3261050  55.9585600   8.0279230
  67.9974410  55.1437360   7.6480960  69.2743350  55.9155410   7.9044920
  65.1663890  54.6684570   5.5830420  64.3835680  55.1430070   5.8627180
  64.8726820  53.7639400   5.4743600  67.5543090  53.7513770   2.3329520
  68.1572460  54.3233980   2.8078040  66.8136080  54.3153210   2.1103420
  61.2022850  54.5155220  12.1343990  60.9207120  55.0188820  11.3704810
  61.5842550  53.7176970  11.7686120  67.8038310  53.9308800  12.7124460
  67.6903760  54.2503410  13.6075980  68.6208050  54.3321310  12.4161740
  66.7096460  43.1757780  58.1733160  66.6290510  42.2612390  57.9024870
  66.2960880  43.6724850  57.4672870  64.8414500  44.9536800  60.0542430
  64.0656600  44.4737240  60.3441000  65.4927430  44.2742450  59.8798590
  68.8621930  49.3596990  58.8341560  68.4003460  48.5884230  59.1628730
  69.6747480  49.3863060  59.3394010  58.8381590  49.2996700  61.1276210
  59.1409630  48.4094440  60.9486430  59.5825180  49.8566920  60.8998460
  57.2672280  40.2258500  54.7160580  56.3788980  40.5674470  54.6140460
  57.5513470  40.0258820  53.8241410  55.2305290  42.8264150  60.6000280
  55.8021400  42.0586350  60.6003920  55.2306830  43.1252910  59.6906890
  65.0885240  51.6455000  58.4545550  64.4696680  52.1012500  57.8839990
  65.9437020  51.8006460  58.0535250  64.2823490  47.6293990  60.0612590
  64.2131770  46.6883930  59.9001720  65.0443350  47.7195400  60.6335160
  65.3128660  40.4364370  60.2881520  65.6893480  39.5636250  60.1755190
  65.2148170  40.7723070  59.3971960  59.4433670  38.8090000  55.7498960
  59.5500420  39.7093730  56.0567720  58.5326030  38.7607970  55.4593610
  61.2841400  41.7776370  60.0824140  61.7919620  42.2757340  60.7229160
  61.8154640  41.0011570  59.9063500  65.9548590  46.5294240  55.8477460
  65.3365860  46.9943690  55.2840180  66.4671840  47.2221720  56.2646970
  69.3314260  39.8715190  59.9937400  68.6269830  40.1600080  60.5740510
  69.6926420  40.6815300  59.6336960  55.3231790  47.2150770  53.2217090
  54.9459770  47.7037870  52.4901990  55.5804860  47.8876050  53.8523620
  62.9320720  35.6167160  58.6802600  63.2395700  35.0614050  57.9638100
  62.0021420  35.7511620  58.4975590  68.4835780  51.3334450  60.9710060
  68.4962940  50.9296740  60.1032320  67.9311000  52.1081740  60.8671490
  69.7781200  48.0550670  56.0600230  69.6677530  47.1125000  56.1849650
  69.7749450  48.4166310  56.9462990  65.3201480  43.6815990  55.4162720
  64.3930760  43.6153370  55.6451190  65.4726300  44.6196120  55.3017960
  65.3070560  39.9532990  52.4129880  64.3674230  40.1146950  52.4982340
  65.6253820  40.6718670  51.8665870  69.3498770  45.2436290  55.9197970
  68.7311190  44.9055840  55.2724270  69.3323220  44.5996050  56.6277160
  60.9258120  44.2080730  58.1982450  60.5215120  43.4957980  57.7028350
  61.0121240  43.8633970  59.0870490  61.3939820  47.8948290  60.3621660
  61.0968110  47.2893760  59.6829440  62.3439640  47.9325600  60.2511020
  67.5263470  44.4823100  52.9270720  67.9656750  43.6445530  52.7808540
  68.2391890  45.1152500  53.0134860  65.6358850  49.4219170  56.8951960
  66.0754760  50.1643500  56.4807350  65.5745740  49.6645740  57.8190920
  57.6262750  43.1025710  55.6989100  57.5060350  43.8287800  55.0870370
  57.3163640  42.3328620  55.2217010  56.5095750  47.9741040  57.9163920
  56.1023830  48.1155630  57.0617520  57.4008760  47.6901200  57.7135130
  68.3029030  52.4088290  54.2514970  68.1430170  52.1191230  55.1496800
  68.1375740  51.6328420  53.7160200  60.7817410  52.1886820  56.0286590
  60.6059890  51.2722360  55.8154390  59.9273150  52.5474110  56.2684390
  68.0055160  49.9175850  52.8112970  67.3120320  49.9153140  52.1515250
  68.7478020  49.4935170  52.3807140  67.5705090  51.5438560  56.8861460
  68.0262040  50.7627940  57.2000080  67.9097610  52.2545380  57.4302640
  60.0926410  36.4460780  59.0812770  59.6494560  37.2270320  58.7497290
  60.6511400  36.7690670  59.7883710  63.2085230  36.0671480  53.9618600
  62.5839410  36.0631350  54.6871910  63.1215350  35.2002440  53.5654570
  62.1302310  36.9908110  60.9402370  62.4274640  37.8970940  60.8594390
  62.6787870  36.5026890  60.3261940  59.8840630  41.5694350  56.8094020
  59.6581550  41.3531520  57.7140640  59.1033160  42.0022810  56.4639990
  67.1138390  41.5757720  55.4084670  66.5147280  42.2993520  55.2248290
  67.6618000  41.5134500  54.6261120  65.7203260  40.2121260  57.4387950
  66.1132830  40.5293460  56.6256640  66.0820110  39.3333140  57.5532470
  54.7567430  36.8022060  59.6618150  54.4680480  37.3724920  60.3743130
  55.5013190  36.3226510  60.0249380  54.9437660  40.7442180  50.8720870
  54.8612330  41.6872940  51.0135860  54.5920720  40.6017090  49.9933220
  62.7435790  39.4781210  59.9391220  62.7471850  39.0371160  59.0895760
  63.6386910  39.7998540  60.0463040  58.5938170  39.3607700  58.8985430
  58.2538220  39.8382930  59.6552480  57.8315490  38.9072820  58.5386530
  62.8055940  40.4793290  52.9297980  62.9268760  40.4379770  53.8783800
  62.4204450  41.3417440  52.7744710  61.8177440  42.7894430  52.3281280
  61.2494340  42.3412680  51.7017190  62.5266440  43.1487210  51.7946430
  55.9084250  38.2826680  57.8150100  55.6231170  37.9182350  58.6528720
  55.8463110  37.5507140  57.2013240  59.3624920  46.7852620  54.6007690
  58.5887180  46.2450240  54.4406410  60.0919550  46.2659230  54.2625450
  65.5822840  37.1755940  54.5363470  64.7687450  36.6769110  54.4608780
  65.3884790  38.0154190  54.1199820  68.2971230  41.5475590  52.8325630
  69.1850850  41.8592820  52.6576970  68.2676320  40.6747840  52.4406210
  59.4062320  46.4533000  58.2386500  59.9240990  45.6501260  58.1843390
  58.9546340  46.3912140  59.0803330  64.2931820  47.7199280  53.5113800
  64.6347520  48.4641510  53.0157120  63.4644530  48.0330400  53.8738630
  67.1759230  47.0415120  58.8759310  67.5283050  46.4443250  58.2160680
  66.2921560  46.7159350  59.0467560  63.2622510  47.8012810  56.2829720
  63.9493640  48.3482020  56.6637310  62.4754930  48.3453540  56.3179330
  55.4014910  43.4185630  51.7746800  56.2709760  43.7010430  52.0582720
  54.9105230  44.2321500  51.6595610  62.5649720  44.8058840  55.8955080
  63.0212500  45.6164090  56.1215270  62.2137930  44.4881980  56.7273570
  58.4661500  35.1496490  56.3677600  58.3376130  35.1414390  57.3162520
  57.6423520  35.4879580  56.0168610  55.7686160  52.6313010  52.3408430
  56.1283800  53.2302350  51.6865700  55.6278500  53.1772900  53.1143460
  61.7854780  50.0144210  53.1582100  61.7764880  50.7473900  52.5426610
  60.8653140  49.7675790  53.2509060  57.3861420  45.2359100  53.9028860
  56.7789370  45.9758000  53.9124160  57.8610770  45.3258460  53.0767060
  64.7714380  50.0772450  51.8207290  64.8726360  49.8736440  50.8909270
  63.8716120  49.8230730  52.0255070  62.2940270  40.6352810  55.8031190
  61.5856420  41.1039150  56.2444800  62.5784750  39.9774820  56.4376380
  66.3255700  37.3603470  57.2426980  66.2023480  37.3789600  56.2936490
  67.2740260  37.4082410  57.3625380  63.4132490  52.5958770  56.5154960
  63.6673990  52.5580160  55.5934330  62.4644970  52.4692100  56.5083210
  60.4975290  38.9437890  53.1781900  61.3465820  39.3808040  53.1122090
  60.1306560  39.2558150  54.0053960  69.4185070  43.5150650  58.0913470
  68.4775210  43.5300880  58.2661160  69.7329140  42.7286610  58.5373770
  59.3966710  45.1970250  51.6517430  60.1629980  45.0851610  52.2142860
  59.4741400  44.5008220  50.9994200  58.0913470  42.6295320  52.3350320
  58.1717060  41.6822830  52.4467720  58.9833220  42.9602200  52.4410980
  58.8928180  52.7790710  59.4384860  59.6290660  52.2306170  59.7093430
  59.2769100  53.6446720  59.2990850  55.7773660  48.8464280  55.3126370
  54.8513440  49.0885420  55.3031780  56.2430090  49.6738540  55.1911120
  62.0030490  51.9521020  51.2610430  62.7959100  52.2409850  50.8092220
  61.4834840  51.5213190  50.5822910  62.5207890  47.1724430  51.1252780
  62.4158530  46.5576780  51.8514160  62.3532110  46.6490320  50.3415790
  65.7610620  46.2344460  51.7294770  65.2120720  46.6813760  52.3737510
  66.3829880  45.7293710  52.2532440  61.4285740  45.1935380  53.6260070
  61.8502160  45.0275250  54.4691460  61.5536580  44.3835610  53.1315210
  63.9413380  44.2172990  50.8737170  64.4619040  43.5022010  50.5078320
  64.5881780  44.8558860  51.1737680  60.3244640  41.2668610  50.5718230
  60.1233700  40.4035970  50.9331570  60.1536690  41.1801970  49.6339830
  67.8032950  36.0776840  53.1005110  68.0835240  35.2344740  53.4564530
  67.0298680  36.3099950  53.6143860  59.1227440  38.3669230  50.5596110
  59.4253340  38.3736660  49.6515260  59.8622030  38.0167090  51.0563770
  62.3412370  37.3103850  51.5452310  61.9934370  36.6327840  50.9654760
  62.5425140  36.8493360  52.3595700  64.5061410  52.2984600  53.1638910
  65.4012200  52.6369570  53.1857670  64.5379040  51.5764010  52.5363190
  58.1457570  47.6711650  51.3925910  58.5832440  48.2141320  52.0483490
  58.6305300  46.8458600  51.4022250  55.3603370  50.4600680  58.8446170
  55.6906380  49.5921740  58.6124810  55.7894370  50.6659200  59.6751130
  59.9565290  48.7909690  56.5048140  59.6560830  48.6674660  57.4052050
  59.8502780  47.9318280  56.0963870  55.6818010  43.8391500  57.9416680
  55.0266850  43.5703140  57.2976380  56.5195960  43.7295980  57.4918660
  68.6308450  38.6332790  52.1635170  69.0493330  38.4463770  51.3231830
  68.3244510  37.7811840  52.4738100  54.8956090  41.0490430  53.8842010
  53.9920170  41.3120630  53.7093670  55.3796710  41.3201600  53.1041970
  57.4383300  40.1055970  51.7936390  58.1475000  39.6839190  51.3083670
  56.7223240  40.1731200  51.1619740  57.0857460  36.1595300  50.8339040
  57.8085590  36.7004240  51.1520260  57.3581980  35.8858720  49.9580580
  61.2091380  51.2642390  60.4995400  61.7256400  50.6529750  59.9743660
  61.8588760  51.7671170  60.9906410  55.8876280  52.3671780  56.9242750
  55.7198320  51.7342460  57.6224640  55.0210790  52.5731180  56.5736940
  56.5104300  36.1988560  54.4274610  57.2683660  36.3117440  53.8538640
  56.0481470  37.0357760  54.3818040  63.0518110  38.3127830  57.4176920
  62.2392620  37.9384720  57.0772800  63.5559750  37.5572910  57.7198110
  67.5543090  34.9770280  58.6559990  68.1572460  35.5490490  59.1308510
  66.8136080  35.5409720  58.4333890  57.4938980  51.0605010  54.3692890
  56.9686600  51.4413040  53.6654850  57.4183560  51.6855780  55.0902600
  58.8829450  36.7252610  52.9676580  59.4122210  35.9382410  52.8384530
  59.5157770  37.4043800  53.2012110  61.0767290  36.4627750  56.0221970
  60.4470030  35.7615060  56.1892100  60.5372430  37.2231880  55.8055130
  60.0931950  53.0087390  53.2442140  60.8250770  52.7246670  52.6966030
  60.3525620  52.7700670  54.1341520  59.2546740  49.1252120  53.2488470
  58.6255620  49.5937220  53.7974300  59.3694570  48.2801340  53.6834660
  66.7096460  43.1757780  39.3989670  66.6290510  42.2612390  39.1281380
  66.2960880  43.6724850  38.6929380  64.8414500  44.9536800  41.2798940
  64.0656600  44.4737240  41.5697510  65.4927430  44.2742450  41.1055100
  58.8580330  45.2656610  42.1574700  58.0265210  45.0105320  42.5571210
  59.4661310  45.3367380  42.8932620  68.8621930  49.3596990  40.0598070
  68.4003460  48.5884230  40.3885240  69.6747480  49.3863060  40.5650520
  58.8381590  49.2996700  42.3532720  59.1409630  48.4094440  42.1742940
  59.5825180  49.8566920  42.1254970  57.2672280  40.2258500  35.9417090
  56.3788980  40.5674470  35.8396970  57.5513470  40.0258820  35.0497920
  55.2305290  42.8264150  41.8256790  55.8021400  42.0586350  41.8260430
  55.2306830  43.1252910  40.9163400  65.0885240  51.6455000  39.6802060
  64.4696680  52.1012500  39.1096500  65.9437020  51.8006460  39.2791760
  64.2823490  47.6293990  41.2869100  64.2131770  46.6883930  41.1258230
  65.0443350  47.7195400  41.8591670  56.4730160  38.2348510  43.6125720
  56.2933000  37.3374260  43.8928480  56.0710240  38.7820380  44.2872670
  65.3128660  40.4364370  41.5138030  65.6893480  39.5636250  41.4011700
  65.2148170  40.7723070  40.6228470  59.4433670  38.8090000  36.9755470
  59.5500420  39.7093730  37.2824230  58.5326030  38.7607970  36.6850120
  57.0916830  40.7309010  42.2208060  57.7726940  40.9947380  42.8395460
  56.7764880  39.8909880  42.5546070  61.2841400  41.7776370  41.3080650
  61.7919620  42.2757340  41.9485670  61.8154640  41.0011570  41.1320010
  59.5677500  36.4174930  45.5744070  59.5695940  36.9347320  44.7689970
  58.7381810  35.9405110  45.5514000  65.9548590  46.5294240  37.0733970
  65.3365860  46.9943690  36.5096690  66.4671840  47.2221720  37.4903480
  60.8180350  46.0570110  43.7517570  60.4849730  46.6839030  44.3938640
  60.9947030  46.5831990  42.9719240  69.3314260  39.8715190  41.2193910
  68.6269830  40.1600080  41.7997020  69.6926420  40.6815300  40.8593470
  59.2492830  38.1284890  43.5814520  59.5909640  38.9726940  43.2868390
  58.3108640  38.2768630  43.6979860  60.0299450  48.0250910  45.5666750
  60.6473450  48.7001990  45.2851200  59.1692570  48.4338890  45.4754250
  55.3231790  47.2150770  34.4473600  54.9459770  47.7037870  33.7158500
  55.5804860  47.8876050  35.0780130  62.9320720  35.6167160  39.9059110
  63.2395700  35.0614050  39.1894610  62.0021420  35.7511620  39.7232100
  68.4835780  51.3334450  42.1966570  68.4962940  50.9296740  41.3288830
  67.9311000  52.1081740  42.0928000  69.7781200  48.0550670  37.2856740
  69.6677530  47.1125000  37.4106160  69.7749450  48.4166310  38.1719500
  67.8821220  46.2364290  43.5249180  68.2990010  46.0224400  42.6902640
  68.6061040  46.4937080  44.0957800  65.3201480  43.6815990  36.6419230
  64.3930760  43.6153370  36.8707700  65.4726300  44.6196120  36.5274470
  65.3070560  39.9532990  33.6386390  64.3674230  40.1146950  33.7238850
  65.6253820  40.6718670  33.0922380  69.3498770  45.2436290  37.1454480
  68.7311190  44.9055840  36.4980780  69.3323220  44.5996050  37.8533670
  68.7925330  41.4220830  44.5620290  68.3796510  42.2474540  44.8160280
  68.0601280  40.8365870  44.3696650  60.9258120  44.2080730  39.4238960
  60.5215120  43.4957980  38.9284860  61.0121240  43.8633970  40.3127000
  61.3939820  47.8948290  41.5878170  61.0968110  47.2893760  40.9085950
  62.3439640  47.9325600  41.4767530  59.6386740  40.9823940  43.2038000
  60.1901330  41.0919280  42.4291250  60.1530250  41.3561540  43.9193230
  69.4825430  51.4680160  45.2501270  69.0055990  52.2752350  45.0573880
  68.7987220  50.8158490  45.4027480  60.4858250  47.6329980  48.2385970
  59.5886780  47.8569950  48.4859370  60.5111120  47.7564920  47.2897370
  67.5263470  44.4823100  34.1527230  67.9656750  43.6445530  34.0065050
  68.2391890  45.1152500  34.2391370  59.3129470  44.5043300  46.8143340
  59.1737240  45.3766100  47.1830740  58.4310830  44.1616110  46.6691280
  65.6358850  49.4219170  38.1208470  66.0754760  50.1643500  37.7063860
  65.5745740  49.6645740  39.0447430  61.1109820  50.4465000  49.0228490
  61.0825250  50.8507950  48.1556920  60.9474790  49.5175360  48.8600090
  57.6262750  43.1025710  36.9245610  57.5060350  43.8287800  36.3126880
  57.3163640  42.3328620  36.4473520  55.2648120  46.2740850  42.7314250
  55.3428540  46.4089620  41.7869970  55.8789800  45.5656740  42.9242370
  56.5095750  47.9741040  39.1420430  56.1023830  48.1155630  38.2874030
  57.4008760  47.6901200  38.9391640  66.3274630  52.1232950  46.0487480
  66.8419300  52.0340960  46.8509910  65.4843710  52.4692650  46.3415390
  68.3029030  52.4088290  35.4771480  68.1430170  52.1191230  36.3753310
  68.1375740  51.6328420  34.9416710  60.7817410  52.1886820  37.2543100
  60.6059890  51.2722360  37.0410900  59.9273150  52.5474110  37.4940900
  68.0055160  49.9175850  34.0369480  67.3120320  49.9153140  33.3771760
  68.7478020  49.4935170  33.6063650  67.5705090  51.5438560  38.1117970
  68.0262040  50.7627940  38.4256590  67.9097610  52.2545380  38.6559150
  55.3207640  47.3155020  45.2708710  55.4838680  46.8460380  44.4528080
  55.7860090  46.8078580  45.9357550  60.0926410  36.4460780  40.3069280
  59.6494560  37.2270320  39.9753800  60.6511400  36.7690670  41.0140220
  64.3796220  39.3129300  45.9104600  63.9175590  39.5212320  46.7224540
  63.9774330  38.4988650  45.6075270  69.3800730  40.5338250  47.0401260
  68.5294320  40.2344000  47.3610330  69.2202520  40.7780260  46.1285080
  66.4750440  42.0340000  49.1400050  66.8003850  41.2003750  48.8002280
  67.2630770  42.5568520  49.2878380  63.2085230  36.0671480  35.1875110
  62.5839410  36.0631350  35.9128420  63.1215350  35.2002440  34.7911080
  62.1302310  36.9908110  42.1658880  62.4274640  37.8970940  42.0850900
  62.6787870  36.5026890  41.5518450  59.8840630  41.5694350  38.0350530
  59.6581550  41.3531520  38.9397150  59.1033160  42.0022810  37.6896500
  67.1138390  41.5757720  36.6341180  66.5147280  42.2993520  36.4504800
  67.6618000  41.5134500  35.8517630  62.3239840  42.4679930  48.7010800
  62.2283440  41.5274660  48.5511200  63.1671820  42.6895000  48.3058870
  65.7203260  40.2121260  38.6644460  66.1132830  40.5293460  37.8513150
  66.0820110  39.3333140  38.7788980  57.4550380  38.8793600  46.8544580
  57.0613770  39.7268810  47.0617360  56.7668780  38.2419970  47.0453220
  64.0295430  38.9628570  49.9241320  63.3393750  38.7700770  50.5587410
  64.7727730  39.2463210  50.4565620  54.7567430  36.8022060  40.8874660
  54.4680480  37.3724920  41.5999640  55.5013190  36.3226510  41.2505890
  54.9437660  40.7442180  32.0977380  54.8612330  41.6872940  32.2392370
  54.5920720  40.6017090  31.2189730  66.3058400  42.8027010  42.7595240
  65.5739520  43.3113820  43.1085340  65.9082740  41.9856990  42.4584020
  62.7435790  39.4781210  41.1647730  62.7471850  39.0371160  40.3152270
  63.6386910  39.7998540  41.2719550  58.5938170  39.3607700  40.1241940
  58.2538220  39.8382930  40.8808990  57.8315490  38.9072820  39.7643040
  62.8055940  40.4793290  34.1554490  62.9268760  40.4379770  35.1040310
  62.4204450  41.3417440  34.0001220  66.7684310  38.2560690  42.1718180
  66.7857050  38.7069340  43.0160030  66.5199890  37.3566330  42.3851620
  61.8177440  42.7894430  33.5537790  61.2494340  42.3412680  32.9273700
  62.5266440  43.1487210  33.0202940  56.8946620  46.6906450  47.4304520
  56.5101410  46.0500120  48.0287480  57.2058810  47.3942570  47.9999250
  63.0443760  43.5382990  42.9113140  63.4113890  43.0641560  43.6574480
  62.8548820  44.4124560  43.2521480  55.9084250  38.2826680  39.0406610
  55.6231170  37.9182350  39.8785230  55.8463110  37.5507140  38.4269750
  60.8343130  42.5791630  45.2297350  60.5300200  43.4583610  45.4547710
  61.7889590  42.6391420  45.2654790  59.3624920  46.7852620  35.8264200
  58.5887180  46.2450240  35.6662920  60.0919550  46.2659230  35.4881960
  65.5822840  37.1755940  35.7619980  64.7687450  36.6769110  35.6865290
  65.3884790  38.0154190  35.3456330  65.5031700  45.8527040  47.5059590
  65.4369010  44.9322710  47.2517180  64.8736840  45.9502480  48.2204230
  68.2971230  41.5475590  34.0582140  69.1850850  41.8592820  33.8833480
  68.2676320  40.6747840  33.6662720  59.4062320  46.4533000  39.4643010
  59.9240990  45.6501260  39.4099900  58.9546340  46.3912140  40.3059840
  64.2931820  47.7199280  34.7370310  64.6347520  48.4641510  34.2413630
  63.4644530  48.0330400  35.0995140  56.8906860  43.4194370  46.3768710
  56.5321800  44.0848220  46.9642050  56.5961420  42.5877920  46.7481330
  60.0919980  43.8778610  49.2608260  59.7920120  44.0235790  48.3636080
  60.8631220  43.3183900  49.1681650  65.4348430  48.6747610  47.2563390
  65.4492970  47.7428570  47.0382300  64.7273530  48.7607370  47.8953160
  67.1759230  47.0415120  40.1015820  67.5283050  46.4443250  39.4417190
  66.2921560  46.7159350  40.2724070  63.2622510  47.8012810  37.5086230
  63.9493640  48.3482020  37.8893820  62.4754930  48.3453540  37.5435840
  55.4014910  43.4185630  33.0003310  56.2709760  43.7010430  33.2839230
  54.9105230  44.2321500  32.8852120  62.5649720  44.8058840  37.1211590
  63.0212500  45.6164090  37.3471780  62.2137930  44.4881980  37.9530080
  64.8682330  50.3165180  44.3503890  65.5124550  50.5224560  45.0277310
  65.2311770  49.5553580  43.8974740  58.4661500  35.1496490  37.5934110
  58.3376130  35.1414390  38.5419030  57.6423520  35.4879580  37.2425120
  66.1414410  48.3197530  43.0681340  66.7836640  47.6190690  43.1813510
  66.6663760  49.0995970  42.8878230  67.9152030  49.1192430  46.2717400
  68.2508270  49.7059120  46.9495320  66.9952370  48.9885140  46.5015190
  55.7686160  52.6313010  33.5664940  56.1283800  53.2302350  32.9122210
  55.6278500  53.1772900  34.3399970  55.4655430  36.9087610  47.0540810
  54.7513950  37.1084530  47.6593420  55.8850470  36.1327180  47.4255610
  55.7528020  50.8967870  48.0407340  55.8619140  49.9562610  47.9002730
  55.1008580  51.1622620  47.3921070  63.7440610  49.1683760  49.4405460
  63.4237480  48.4493000  49.9851150  63.0698970  49.8438830  49.5141520
  61.7854780  50.0144210  34.3838610  61.7764880  50.7473900  33.7683120
  60.8653140  49.7675790  34.4765570  57.3861420  45.2359100  35.1285370
  56.7789370  45.9758000  35.1380670  57.8610770  45.3258460  34.3023570
  66.9594210  39.4009920  44.8042260  67.3275030  38.5805130  45.1321830
  66.0992410  39.4611810  45.2197910  64.7714380  50.0772450  33.0463800
  64.8726360  49.8736440  32.1165780  63.8716120  49.8230730  33.2511580
  62.2940270  40.6352810  37.0287700  61.5856420  41.1039150  37.4701310
  62.5784750  39.9774820  37.6632890  63.9196200  42.0549510  45.0280230
  64.4181450  42.5295330  45.6932080  64.0619150  41.1313030  45.2350260
  66.3255700  37.3603470  38.4683490  66.2023480  37.3789600  37.5193000
  67.2740260  37.4082410  38.5881890  63.4132490  52.5958770  37.7411470
  63.6673990  52.5580160  36.8190840  62.4644970  52.4692100  37.7339720
  60.4975290  38.9437890  34.4038410  61.3465820  39.3808040  34.3378600
  60.1306560  39.2558150  35.2310470  69.4185070  43.5150650  39.3169980
  68.4775210  43.5300880  39.4917670  69.7329140  42.7286610  39.7630280
  59.3966710  45.1970250  32.8773940  60.1629980  45.0851610  33.4399370
  59.4741400  44.5008220  32.2250710  58.0913470  42.6295320  33.5606830
  58.1717060  41.6822830  33.6724230  58.9833220  42.9602200  33.6667490
  58.8928180  52.7790710  40.6641370  59.6290660  52.2306170  40.9349940
  59.2769100  53.6446720  40.5247360  55.7773660  48.8464280  36.5382880
  54.8513440  49.0885420  36.5288290  56.2430090  49.6738540  36.4167630
  57.8986460  51.9636780  49.8526950  58.6999190  52.2848830  50.2662350
  57.3838280  51.6032360  50.5746860  62.0030490  51.9521020  32.4866940
  62.7959100  52.2409850  32.0348730  61.4834840  51.5213190  31.8079420
  66.7351090  48.0716650  49.8002360  66.1289250  48.0948250  49.0598110
  66.4305200  47.3399690  50.3369610  68.1651460  51.7996940  48.4111770
  69.1173210  51.7154960  48.3612010  68.0179680  52.4638650  49.0845560
  55.6184270  44.4510240  48.7963000  56.1223290  43.8717520  49.3679230
  54.8791690  44.7350470  49.3339370  62.5207890  47.1724430  32.3509290
  62.4158530  46.5576780  33.0770670  62.3532110  46.6490320  31.5672300
  62.6722210  45.8581230  48.3298520  61.9067880  46.4266230  48.2453190
  62.8538170  45.5657440  47.4366750  65.7610620  46.2344460  32.9551280
  65.2120720  46.6813760  33.5994020  66.3829880  45.7293710  33.4788950
  57.6507350  42.5939830  49.6913070  57.6912690  42.2953700  50.5998300
  58.5052850  42.9947440  49.5320590  61.4285740  45.1935380  34.8516580
  61.8502160  45.0275250  35.6947970  61.5536580  44.3835610  34.3571720
  59.5913160  41.1731930  47.6587560  59.0609620  40.6822880  47.0310900
  60.2601230  41.6016130  47.1245490  63.9413380  44.2172990  32.0993680
  64.4619040  43.5022010  31.7334830  64.5881780  44.8558860  32.3994190
  68.4891220  45.6401390  47.4228750  68.9032240  45.7946470  48.2719170
  67.5542220  45.7656610  47.5854530  68.9613390  42.9797550  49.4267900
  69.5434160  42.2249870  49.3388380  69.1375160  43.5104990  48.6499380
  60.0785460  38.1394300  47.7384850  59.9842330  37.5215050  47.0135720
  59.4982850  38.8660590  47.5114760  62.8446900  36.6967540  44.7712240
  62.3964200  36.7191800  43.9257790  62.2112100  36.2986560  45.3682540
  63.2506450  45.5921870  45.3924680  63.6694560  46.4354600  45.2200920
  62.3315080  45.7293910  45.1631460  65.5870350  43.3238050  46.7762520
  65.7066560  42.7279190  47.5157360  66.4464350  43.3607740  46.3563820
  67.9258250  43.8775240  45.3525030  67.3993470  44.4017860  44.7490170
  68.2689590  44.5102630  45.9834760  60.3244640  41.2668610  31.7974740
  60.1233700  40.4035970  32.1588080  60.1536690  41.1801970  30.8596340
  61.1013870  51.8974880  46.5082410  60.5634960  52.6220940  46.1891110
  61.3547830  51.4205220  45.7179750  62.3539120  39.8659400  48.0338340
  62.9438810  39.5575250  48.7216160  61.5359360  39.3939150  48.1898240
  67.1732550  39.4825210  48.2671360  66.4848070  38.8206750  48.2021350
  67.8938570  39.0363480  48.7119820  67.8032950  36.0776840  34.3261620
  68.0835240  35.2344740  34.6821040  67.0298680  36.3099950  34.8400370
  59.1227440  38.3669230  31.7852620  59.4253340  38.3736660  30.8771770
  59.8622030  38.0167090  32.2820280  63.9576080  53.1326090  46.7669060
  63.8834780  54.0361230  47.0741430  63.0554920  52.8137990  46.7391130
  62.3412370  37.3103850  32.7708820  61.9934370  36.6327840  32.1911270
  62.5425140  36.8493360  33.5852210  64.5061410  52.2984600  34.3895420
  65.4012200  52.6369570  34.4114180  64.5379040  51.5764010  33.7619700
  58.1457570  47.6711650  32.6182420  58.5832440  48.2141320  33.2740000
  58.6305300  46.8458600  32.6278760  55.3603370  50.4600680  40.0702680
  55.6906380  49.5921740  39.8381320  55.7894370  50.6659200  40.9007640
  59.9565290  48.7909690  37.7304650  59.6560830  48.6674660  38.6308560
  59.8502780  47.9318280  37.3220380  55.8493580  51.3271270  42.8084310
  55.4124570  51.5072070  43.6408460  56.4171260  52.0845890  42.6666030
  55.6818010  43.8391500  39.1673190  55.0266850  43.5703140  38.5232890
  56.5195960  43.7295980  38.7175170  68.6308450  38.6332790  33.3891680
  69.0493330  38.4463770  32.5488340  68.3244510  37.7811840  33.6994610
  56.7193940  44.2244070  43.7076530  57.0866980  44.1371470  44.5872550
  56.1504760  43.4610620  43.6083390  56.2709940  41.1353160  47.6134950
  55.3765990  41.1019920  47.9528660  56.8107490  41.3339950  48.3786200
  54.8956090  41.0490430  35.1098520  53.9920170  41.3120630  34.9350180
  55.3796710  41.3201600  34.3298480  57.4383300  40.1055970  33.0192900
  58.1475000  39.6839190  32.5340180  56.7223240  40.1731200  32.3876250
  57.0857460  36.1595300  32.0595550  57.8085590  36.7004240  32.3776770
  57.3581980  35.8858720  31.1837090  56.7749650  35.4101490  41.9618170
  57.4225840  34.8598870  41.5213330  57.1951490  35.6644640  42.7833980
  56.5281650  35.5657160  44.7043490  56.1796470  36.0220980  45.4701670
  56.1969350  34.6714290  44.7865920  58.1346020  48.7376760  48.8696680
  58.0915650  48.3669670  49.7511140  58.2657030  49.6754330  49.0098500
  61.8352050  50.2936350  44.4706400  61.5943410  50.5610910  43.5836920
  62.7754690  50.4642080  44.5257260  64.0406470  36.7569040  48.2262910
  63.9795360  37.3490870  48.9758320  64.9806850  36.6495000  48.0813170
  66.6781030  36.4139100  47.8655200  67.2921440  36.7318390  47.2036280
  67.2230590  35.9287690  48.4851060  57.2002290  35.0933360  47.9794260
  57.7485280  34.9121410  47.2160370  57.2657600  34.3027470  48.5150570
  57.9734050  51.6839010  45.9894460  57.3794370  51.5523710  46.7284500
  57.9657890  50.8477150  45.5236560  67.4189070  34.9771240  44.1924490
  66.5448910  35.3106350  43.9897420  67.3099820  34.5044420  45.0176360
  68.3261050  37.1842110  45.5766210  67.9974410  36.3693870  45.1967940
  69.2743350  37.1411920  45.4531900  57.6046280  49.0497390  44.9402500
  56.8780340  48.4302680  44.8728450  57.6655430  49.4438000  44.0700580
  61.2091380  51.2642390  41.7251910  61.7256400  50.6529750  41.2000170
  61.8588760  51.7671170  42.2162920  63.9486880  52.1550880  42.5520890
  64.2364690  51.9005180  41.6753900  64.4610100  51.6028240  43.1426460
  65.1663890  35.8941080  43.1317400  64.3835680  36.3686580  43.4114160
  64.8726820  34.9895910  43.0230580  55.8876280  52.3671780  38.1499260
  55.7198320  51.7342460  38.8481150  55.0210790  52.5731180  37.7993450
  56.5104300  36.1988560  35.6531120  57.2683660  36.3117440  35.0795150
  56.0481470  37.0357760  35.6074550  63.0518110  38.3127830  38.6433430
  62.2392620  37.9384720  38.3029310  63.5559750  37.5572910  38.9454620
  67.5543090  34.9770280  39.8816500  68.1572460  35.5490490  40.3565020
  66.8136080  35.5409720  39.6590400  57.4938980  51.0605010  35.5949400
  56.9686600  51.4413040  34.8911360  57.4183560  51.6855780  36.3159110
  58.8829450  36.7252610  34.1933090  59.4122210  35.9382410  34.0641040
  59.5157770  37.4043800  34.4268620  61.0767290  36.4627750  37.2478480
  60.4470030  35.7615060  37.4148610  60.5372430  37.2231880  37.0311640
  64.0159240  53.0766980  49.9189090  64.9426550  52.8411250  49.9625050
  64.0009670  53.9038980  49.4375120  61.2022850  35.7411730  49.6830970
  60.9207120  36.2445330  48.9191790  61.5842550  34.9433480  49.3173100
  60.0931950  53.0087390  34.4698650  60.8250770  52.7246670  33.9222540
  60.3525620  52.7700670  35.3598030  59.2546740  49.1252120  34.4744980
  58.6255620  49.5937220  35.0230810  59.3694570  48.2801340  34.9091170
  67.8038310  35.1565310  50.2611440  67.6903760  35.4759920  51.1562960
  68.6208050  35.5577820  49.9648720  66.7096460  43.1757780  20.6246180
  66.6290510  42.2612390  20.3537890  66.2960880  43.6724850  19.9185890
  64.8414500  44.9536800  22.5055450  64.0656600  44.4737240  22.7954020
  65.4927430  44.2742450  22.3311610  58.8580330  45.2656610  23.3831210
  58.0265210  45.0105320  23.7827720  59.4661310  45.3367380  24.1189130
  68.8621930  49.3596990  21.2854580  68.4003460  48.5884230  21.6141750
  69.6747480  49.3863060  21.7907030  58.8381590  49.2996700  23.5789230
  59.1409630  48.4094440  23.3999450  59.5825180  49.8566920  23.3511480
  57.2672280  40.2258500  17.1673600  56.3788980  40.5674470  17.0653480
  57.5513470  40.0258820  16.2754430  55.2305290  42.8264150  23.0513300
  55.8021400  42.0586350  23.0516940  55.2306830  43.1252910  22.1419910
  65.0885240  51.6455000  20.9058570  64.4696680  52.1012500  20.3353010
  65.9437020  51.8006460  20.5048270  64.2823490  47.6293990  22.5125610
  64.2131770  46.6883930  22.3514740  65.0443350  47.7195400  23.0848180
  56.4730160  38.2348510  24.8382230  56.2933000  37.3374260  25.1184990
  56.0710240  38.7820380  25.5129180  65.3128660  40.4364370  22.7394540
  65.6893480  39.5636250  22.6268210  65.2148170  40.7723070  21.8484980
  59.4433670  38.8090000  18.2011980  59.5500420  39.7093730  18.5080740
  58.5326030  38.7607970  17.9106630  57.0916830  40.7309010  23.4464570
  57.7726940  40.9947380  24.0651970  56.7764880  39.8909880  23.7802580
  61.2841400  41.7776370  22.5337160  61.7919620  42.2757340  23.1742180
  61.8154640  41.0011570  22.3576520  59.5677500  36.4174930  26.8000580
  59.5695940  36.9347320  25.9946480  58.7381810  35.9405110  26.7770510
  65.9548590  46.5294240  18.2990480  65.3365860  46.9943690  17.7353200
  66.4671840  47.2221720  18.7159990  60.8180350  46.0570110  24.9774080
  60.4849730  46.6839030  25.6195150  60.9947030  46.5831990  24.1975750
  69.3314260  39.8715190  22.4450420  68.6269830  40.1600080  23.0253530
  69.6926420  40.6815300  22.0849980  59.2492830  38.1284890  24.8071030
  59.5909640  38.9726940  24.5124900  58.3108640  38.2768630  24.9236370
  60.0299450  48.0250910  26.7923260  60.6473450  48.7001990  26.5107710
  59.1692570  48.4338890  26.7010760  55.3231790  47.2150770  15.6730110
  54.9459770  47.7037870  14.9415010  55.5804860  47.8876050  16.3036640
  62.9320720  35.6167160  21.1315620  63.2395700  35.0614050  20.4151120
  62.0021420  35.7511620  20.9488610  68.4835780  51.3334450  23.4223080
  68.4962940  50.9296740  22.5545340  67.9311000  52.1081740  23.3184510
  69.7781200  48.0550670  18.5113250  69.6677530  47.1125000  18.6362670
  69.7749450  48.4166310  19.3976010  67.8821220  46.2364290  24.7505690
  68.2990010  46.0224400  23.9159150  68.6061040  46.4937080  25.3214310
  65.3201480  43.6815990  17.8675740  64.3930760  43.6153370  18.0964210
  65.4726300  44.6196120  17.7530980  65.3070560  39.9532990  14.8642900
  64.3674230  40.1146950  14.9495360  65.6253820  40.6718670  14.3178890
  69.3498770  45.2436290  18.3710990  68.7311190  44.9055840  17.7237290
  69.3323220  44.5996050  19.0790180  68.7925330  41.4220830  25.7876800
  68.3796510  42.2474540  26.0416790  68.0601280  40.8365870  25.5953160
  60.9258120  44.2080730  20.6495470  60.5215120  43.4957980  20.1541370
  61.0121240  43.8633970  21.5383510  61.3939820  47.8948290  22.8134680
  61.0968110  47.2893760  22.1342460  62.3439640  47.9325600  22.7024040
  59.6386740  40.9823940  24.4294510  60.1901330  41.0919280  23.6547760
  60.1530250  41.3561540  25.1449740  69.4825430  51.4680160  26.4757780
  69.0055990  52.2752350  26.2830390  68.7987220  50.8158490  26.6283990
  60.4858250  47.6329980  29.4642480  59.5886780  47.8569950  29.7115880
  60.5111120  47.7564920  28.5153880  67.5263470  44.4823100  15.3783740
  67.9656750  43.6445530  15.2321560  68.2391890  45.1152500  15.4647880
  59.3129470  44.5043300  28.0399850  59.1737240  45.3766100  28.4087250
  58.4310830  44.1616110  27.8947790  65.6358850  49.4219170  19.3464980
  66.0754760  50.1643500  18.9320370  65.5745740  49.6645740  20.2703940
  61.1109820  50.4465000  30.2485000  61.0825250  50.8507950  29.3813430
  60.9474790  49.5175360  30.0856600  57.6262750  43.1025710  18.1502120
  57.5060350  43.8287800  17.5383390  57.3163640  42.3328620  17.6730030
  55.2648120  46.2740850  23.9570760  55.3428540  46.4089620  23.0126480
  55.8789800  45.5656740  24.1498880  56.5095750  47.9741040  20.3676940
  56.1023830  48.1155630  19.5130540  57.4008760  47.6901200  20.1648150
  66.3274630  52.1232950  27.2743990  66.8419300  52.0340960  28.0766420
  65.4843710  52.4692650  27.5671900  68.3029030  52.4088290  16.7027990
  68.1430170  52.1191230  17.6009820  68.1375740  51.6328420  16.1673220
  60.7817410  52.1886820  18.4799610  60.6059890  51.2722360  18.2667410
  59.9273150  52.5474110  18.7197410  68.0055160  49.9175850  15.2625990
  67.3120320  49.9153140  14.6028270  68.7478020  49.4935170  14.8320160
  67.5705090  51.5438560  19.3374480  68.0262040  50.7627940  19.6513100
  67.9097610  52.2545380  19.8815660  55.3207640  47.3155020  26.4965220
  55.4838680  46.8460380  25.6784590  55.7860090  46.8078580  27.1614060
  60.0926410  36.4460780  21.5325790  59.6494560  37.2270320  21.2010310
  60.6511400  36.7690670  22.2396730  64.3796220  39.3129300  27.1361110
  63.9175590  39.5212320  27.9481050  63.9774330  38.4988650  26.8331780
  69.3800730  40.5338250  28.2657770  68.5294320  40.2344000  28.5866840
  69.2202520  40.7780260  27.3541590  66.4750440  42.0340000  30.3656560
  66.8003850  41.2003750  30.0258790  67.2630770  42.5568520  30.5134890
  63.2085230  36.0671480  16.4131620  62.5839410  36.0631350  17.1384930
  63.1215350  35.2002440  16.0167590  62.1302310  36.9908110  23.3915390
  62.4274640  37.8970940  23.3107410  62.6787870  36.5026890  22.7774960
  59.8840630  41.5694350  19.2607040  59.6581550  41.3531520  20.1653660
  59.1033160  42.0022810  18.9153010  67.1138390  41.5757720  17.8597690
  66.5147280  42.2993520  17.6761310  67.6618000  41.5134500  17.0774140
  62.3239840  42.4679930  29.9267310  62.2283440  41.5274660  29.7767710
  63.1671820  42.6895000  29.5315380  65.7203260  40.2121260  19.8900970
  66.1132830  40.5293460  19.0769660  66.0820110  39.3333140  20.0045490
  57.4550380  38.8793600  28.0801090  57.0613770  39.7268810  28.2873870
  56.7668780  38.2419970  28.2709730  64.0295430  38.9628570  31.1497830
  63.3393750  38.7700770  31.7843920  64.7727730  39.2463210  31.6822130
  54.7567430  36.8022060  22.1131170  54.4680480  37.3724920  22.8256150
  55.5013190  36.3226510  22.4762400  54.9437660  40.7442180  13.3233890
  54.8612330  41.6872940  13.4648880  54.5920720  40.6017090  12.4446240
  66.3058400  42.8027010  23.9851750  65.5739520  43.3113820  24.3341850
  65.9082740  41.9856990  23.6840530  62.7435790  39.4781210  22.3904240
  62.7471850  39.0371160  21.5408780  63.6386910  39.7998540  22.4976060
  58.5938170  39.3607700  21.3498450  58.2538220  39.8382930  22.1065500
  57.8315490  38.9072820  20.9899550  62.8055940  40.4793290  15.3811000
  62.9268760  40.4379770  16.3296820  62.4204450  41.3417440  15.2257730
  66.7684310  38.2560690  23.3974690  66.7857050  38.7069340  24.2416540
  66.5199890  37.3566330  23.6108130  61.8177440  42.7894430  14.7794300
  61.2494340  42.3412680  14.1530210  62.5266440  43.1487210  14.2459450
  56.8946620  46.6906450  28.6561030  56.5101410  46.0500120  29.2543990
  57.2058810  47.3942570  29.2255760  63.0443760  43.5382990  24.1369650
  63.4113890  43.0641560  24.8830990  62.8548820  44.4124560  24.4777990
  55.9084250  38.2826680  20.2663120  55.6231170  37.9182350  21.1041740
  55.8463110  37.5507140  19.6526260  60.8343130  42.5791630  26.4553860
  60.5300200  43.4583610  26.6804220  61.7889590  42.6391420  26.4911300
  59.3624920  46.7852620  17.0520710  58.5887180  46.2450240  16.8919430
  60.0919550  46.2659230  16.7138470  65.5822840  37.1755940  16.9876490
  64.7687450  36.6769110  16.9121800  65.3884790  38.0154190  16.5712840
  65.5031700  45.8527040  28.7316100  65.4369010  44.9322710  28.4773690
  64.8736840  45.9502480  29.4460740  68.2971230  41.5475590  15.2838650
  69.1850850  41.8592820  15.1089990  68.2676320  40.6747840  14.8919230
  59.4062320  46.4533000  20.6899520  59.9240990  45.6501260  20.6356410
  58.9546340  46.3912140  21.5316350  64.2931820  47.7199280  15.9626820
  64.6347520  48.4641510  15.4670140  63.4644530  48.0330400  16.3251650
  56.8906860  43.4194370  27.6025220  56.5321800  44.0848220  28.1898560
  56.5961420  42.5877920  27.9737840  60.0919980  43.8778610  30.4864770
  59.7920120  44.0235790  29.5892590  60.8631220  43.3183900  30.3938160
  65.4348430  48.6747610  28.4819900  65.4492970  47.7428570  28.2638810
  64.7273530  48.7607370  29.1209670  67.1759230  47.0415120  21.3272330
  67.5283050  46.4443250  20.6673700  66.2921560  46.7159350  21.4980580
  63.2622510  47.8012810  18.7342740  63.9493640  48.3482020  19.1150330
  62.4754930  48.3453540  18.7692350  55.4014910  43.4185630  14.2259820
  56.2709760  43.7010430  14.5095740  54.9105230  44.2321500  14.1108630
  62.5649720  44.8058840  18.3468100  63.0212500  45.6164090  18.5728290
  62.2137930  44.4881980  19.1786590  64.8682330  50.3165180  25.5760400
  65.5124550  50.5224560  26.2533820  65.2311770  49.5553580  25.1231250
  58.4661500  35.1496490  18.8190620  58.3376130  35.1414390  19.7675540
  57.6423520  35.4879580  18.4681630  66.1414410  48.3197530  24.2937850
  66.7836640  47.6190690  24.4070020  66.6663760  49.0995970  24.1134740
  67.9152030  49.1192430  27.4973910  68.2508270  49.7059120  28.1751830
  66.9952370  48.9885140  27.7271700  55.7686160  52.6313010  14.7921450
  56.1283800  53.2302350  14.1378720  55.6278500  53.1772900  15.5656480
  55.4655430  36.9087610  28.2797320  54.7513950  37.1084530  28.8849930
  55.8850470  36.1327180  28.6512120  55.7528020  50.8967870  29.2663850
  55.8619140  49.9562610  29.1259240  55.1008580  51.1622620  28.6177580
  63.7440610  49.1683760  30.6661970  63.4237480  48.4493000  31.2107660
  63.0698970  49.8438830  30.7398030  61.7854780  50.0144210  15.6095120
  61.7764880  50.7473900  14.9939630  60.8653140  49.7675790  15.7022080
  57.3861420  45.2359100  16.3541880  56.7789370  45.9758000  16.3637180
  57.8610770  45.3258460  15.5280080  66.9594210  39.4009920  26.0298770
  67.3275030  38.5805130  26.3578340  66.0992410  39.4611810  26.4454420
  64.7714380  50.0772450  14.2720310  64.8726360  49.8736440  13.3422290
  63.8716120  49.8230730  14.4768090  62.2940270  40.6352810  18.2544210
  61.5856420  41.1039150  18.6957820  62.5784750  39.9774820  18.8889400
  63.9196200  42.0549510  26.2536740  64.4181450  42.5295330  26.9188590
  64.0619150  41.1313030  26.4606770  66.3255700  37.3603470  19.6940000
  66.2023480  37.3789600  18.7449510  67.2740260  37.4082410  19.8138400
  63.4132490  52.5958770  18.9667980  63.6673990  52.5580160  18.0447350
  62.4644970  52.4692100  18.9596230  60.4975290  38.9437890  15.6294920
  61.3465820  39.3808040  15.5635110  60.1306560  39.2558150  16.4566980
  69.4185070  43.5150650  20.5426490  68.4775210  43.5300880  20.7174180
  69.7329140  42.7286610  20.9886790  59.3966710  45.1970250  14.1030450
  60.1629980  45.0851610  14.6655880  59.4741400  44.5008220  13.4507220
  58.0913470  42.6295320  14.7863340  58.1717060  41.6822830  14.8980740
  58.9833220  42.9602200  14.8924000  58.8928180  52.7790710  21.8897880
  59.6290660  52.2306170  22.1606450  59.2769100  53.6446720  21.7503870
  55.7773660  48.8464280  17.7639390  54.8513440  49.0885420  17.7544800
  56.2430090  49.6738540  17.6424140  57.8986460  51.9636780  31.0783460
  58.6999190  52.2848830  31.4918860  57.3838280  51.6032360  31.8003370
  62.0030490  51.9521020  13.7123450  62.7959100  52.2409850  13.2605240
  61.4834840  51.5213190  13.0335930  66.7351090  48.0716650  31.0258870
  66.1289250  48.0948250  30.2854620  66.4305200  47.3399690  31.5626120
  68.1651460  51.7996940  29.6368280  69.1173210  51.7154960  29.5868520
  68.0179680  52.4638650  30.3102070  55.6184270  44.4510240  30.0219510
  56.1223290  43.8717520  30.5935740  54.8791690  44.7350470  30.5595880
  62.5207890  47.1724430  13.5765800  62.4158530  46.5576780  14.3027180
  62.3532110  46.6490320  12.7928810  62.6722210  45.8581230  29.5555030
  61.9067880  46.4266230  29.4709700  62.8538170  45.5657440  28.6623260
  65.7610620  46.2344460  14.1807790  65.2120720  46.6813760  14.8250530
  66.3829880  45.7293710  14.7045460  57.6507350  42.5939830  30.9169580
  57.6912690  42.2953700  31.8254810  58.5052850  42.9947440  30.7577100
  61.4285740  45.1935380  16.0773090  61.8502160  45.0275250  16.9204480
  61.5536580  44.3835610  15.5828230  59.5913160  41.1731930  28.8844070
  59.0609620  40.6822880  28.2567410  60.2601230  41.6016130  28.3502000
  63.9413380  44.2172990  13.3250190  64.4619040  43.5022010  12.9591340
  64.5881780  44.8558860  13.6250700  68.4891220  45.6401390  28.6485260
  68.9032240  45.7946470  29.4975680  67.5542220  45.7656610  28.8111040
  68.9613390  42.9797550  30.6524410  69.5434160  42.2249870  30.5644890
  69.1375160  43.5104990  29.8755890  60.0785460  38.1394300  28.9641360
  59.9842330  37.5215050  28.2392230  59.4982850  38.8660590  28.7371270
  62.8446900  36.6967540  25.9968750  62.3964200  36.7191800  25.1514300
  62.2112100  36.2986560  26.5939050  63.2506450  45.5921870  26.6181190
  63.6694560  46.4354600  26.4457430  62.3315080  45.7293910  26.3887970
  65.5870350  43.3238050  28.0019030  65.7066560  42.7279190  28.7413870
  66.4464350  43.3607740  27.5820330  67.9258250  43.8775240  26.5781540
  67.3993470  44.4017860  25.9746680  68.2689590  44.5102630  27.2091270
  60.3244640  41.2668610  13.0231250  60.1233700  40.4035970  13.3844590
  60.1536690  41.1801970  12.0852850  61.1013870  51.8974880  27.7338920
  60.5634960  52.6220940  27.4147620  61.3547830  51.4205220  26.9436260
  62.3539120  39.8659400  29.2594850  62.9438810  39.5575250  29.9472670
  61.5359360  39.3939150  29.4154750  67.1732550  39.4825210  29.4927870
  66.4848070  38.8206750  29.4277860  67.8938570  39.0363480  29.9376330
  67.8032950  36.0776840  15.5518130  68.0835240  35.2344740  15.9077550
  67.0298680  36.3099950  16.0656880  59.1227440  38.3669230  13.0109130
  59.4253340  38.3736660  12.1028280  59.8622030  38.0167090  13.5076790
  63.9576080  53.1326090  27.9925570  63.8834780  54.0361230  28.2997940
  63.0554920  52.8137990  27.9647640  62.3412370  37.3103850  13.9965330
  61.9934370  36.6327840  13.4167780  62.5425140  36.8493360  14.8108720
  64.5061410  52.2984600  15.6151930  65.4012200  52.6369570  15.6370690
  64.5379040  51.5764010  14.9876210  58.1457570  47.6711650  13.8438930
  58.5832440  48.2141320  14.4996510  58.6305300  46.8458600  13.8535270
  55.3603370  50.4600680  21.2959190  55.6906380  49.5921740  21.0637830
  55.7894370  50.6659200  22.1264150  59.9565290  48.7909690  18.9561160
  59.6560830  48.6674660  19.8565070  59.8502780  47.9318280  18.5476890
  55.8493580  51.3271270  24.0340820  55.4124570  51.5072070  24.8664970
  56.4171260  52.0845890  23.8922540  55.6818010  43.8391500  20.3929700
  55.0266850  43.5703140  19.7489400  56.5195960  43.7295980  19.9431680
  68.6308450  38.6332790  14.6148190  69.0493330  38.4463770  13.7744850
  68.3244510  37.7811840  14.9251120  56.7193940  44.2244070  24.9333040
  57.0866980  44.1371470  25.8129060  56.1504760  43.4610620  24.8339900
  56.2709940  41.1353160  28.8391460  55.3765990  41.1019920  29.1785170
  56.8107490  41.3339950  29.6042710  54.8956090  41.0490430  16.3355030
  53.9920170  41.3120630  16.1606690  55.3796710  41.3201600  15.5554990
  57.4383300  40.1055970  14.2449410  58.1475000  39.6839190  13.7596690
  56.7223240  40.1731200  13.6132760  57.0857460  36.1595300  13.2852060
  57.8085590  36.7004240  13.6033280  57.3581980  35.8858720  12.4093600
  56.7749650  35.4101490  23.1874680  57.4225840  34.8598870  22.7469840
  57.1951490  35.6644640  24.0090490  56.5281650  35.5657160  25.9300000
  56.1796470  36.0220980  26.6958180  56.1969350  34.6714290  26.0122430
  58.1346020  48.7376760  30.0953190  58.0915650  48.3669670  30.9767650
  58.2657030  49.6754330  30.2355010  61.8352050  50.2936350  25.6962910
  61.5943410  50.5610910  24.8093430  62.7754690  50.4642080  25.7513770
  64.0406470  36.7569040  29.4519420  63.9795360  37.3490870  30.2014830
  64.9806850  36.6495000  29.3069680  66.6781030  36.4139100  29.0911710
  67.2921440  36.7318390  28.4292790  67.2230590  35.9287690  29.7107570
  57.2002290  35.0933360  29.2050770  57.7485280  34.9121410  28.4416880
  57.2657600  34.3027470  29.7407080  57.9734050  51.6839010  27.2150970
  57.3794370  51.5523710  27.9541010  57.9657890  50.8477150  26.7493070
  67.4189070  34.9771240  25.4181000  66.5448910  35.3106350  25.2153930
  67.3099820  34.5044420  26.2432870  68.3261050  37.1842110  26.8022720
  67.9974410  36.3693870  26.4224450  69.2743350  37.1411920  26.6788410
  57.6046280  49.0497390  26.1659010  56.8780340  48.4302680  26.0984960
  57.6655430  49.4438000  25.2957090  61.2091380  51.2642390  22.9508420
  61.7256400  50.6529750  22.4256680  61.8588760  51.7671170  23.4419430
  63.9486880  52.1550880  23.7777400  64.2364690  51.9005180  22.9010410
  64.4610100  51.6028240  24.3682970  65.1663890  35.8941080  24.3573910
  64.3835680  36.3686580  24.6370670  64.8726820  34.9895910  24.2487090
  55.8876280  52.3671780  19.3755770  55.7198320  51.7342460  20.0737660
  55.0210790  52.5731180  19.0249960  56.5104300  36.1988560  16.8787630
  57.2683660  36.3117440  16.3051660  56.0481470  37.0357760  16.8331060
  63.0518110  38.3127830  19.8689940  62.2392620  37.9384720  19.5285820
  63.5559750  37.5572910  20.1711130  67.5543090  34.9770280  21.1073010
  68.1572460  35.5490490  21.5821530  66.8136080  35.5409720  20.8846910
  57.4938980  51.0605010  16.8205910  56.9686600  51.4413040  16.1167870
  57.4183560  51.6855780  17.5415620  58.8829450  36.7252610  15.4189600
  59.4122210  35.9382410  15.2897550  59.5157770  37.4043800  15.6525130
  61.0767290  36.4627750  18.4734990  60.4470030  35.7615060  18.6405120
  60.5372430  37.2231880  18.2568150  64.0159240  53.0766980  31.1445600
  64.9426550  52.8411250  31.1881560  64.0009670  53.9038980  30.6631630
  61.2022850  35.7411730  30.9087480  60.9207120  36.2445330  30.1448300
  61.5842550  34.9433480  30.5429610  60.0931950  53.0087390  15.6955160
  60.8250770  52.7246670  15.1479050  60.3525620  52.7700670  16.5854540
  59.2546740  49.1252120  15.7001490  58.6255620  49.5937220  16.2487320
  59.3694570  48.2801340  16.1347680  67.8038310  35.1565310  31.4867950
  67.6903760  35.4759920  32.3819470  68.6208050  35.5577820  31.1905230
  64.8414500  44.9536800   3.7311960  64.0656600  44.4737240   4.0210530
  65.4927430  44.2742450   3.5568120  58.8580330  45.2656610   4.6087720
  58.0265210  45.0105320   5.0084230  59.4661310  45.3367380   5.3445640
  68.8621930  49.3596990   2.5111090  68.4003460  48.5884230   2.8398260
  69.6747480  49.3863060   3.0163540  58.8381590  49.2996700   4.8045740
  59.1409630  48.4094440   4.6255960  59.5825180  49.8566920   4.5767990
  55.2305290  42.8264150   4.2769810  55.8021400  42.0586350   4.2773450
  55.2306830  43.1252910   3.3676420  64.2823490  47.6293990   3.7382120
  64.2131770  46.6883930   3.5771250  65.0443350  47.7195400   4.3104690
  56.4730160  38.2348510   6.0638740  56.2933000  37.3374260   6.3441500
  56.0710240  38.7820380   6.7385690  65.3128660  40.4364370   3.9651050
  65.6893480  39.5636250   3.8524720  65.2148170  40.7723070   3.0741490
  57.0916830  40.7309010   4.6721080  57.7726940  40.9947380   5.2908480
  56.7764880  39.8909880   5.0059090  61.2841400  41.7776370   3.7593670
  61.7919620  42.2757340   4.3998690  61.8154640  41.0011570   3.5833030
  59.5677500  36.4174930   8.0257090  59.5695940  36.9347320   7.2202990
  58.7381810  35.9405110   8.0027020  60.8180350  46.0570110   6.2030590
  60.4849730  46.6839030   6.8451660  60.9947030  46.5831990   5.4232260
  69.3314260  39.8715190   3.6706930  68.6269830  40.1600080   4.2510040
  69.6926420  40.6815300   3.3106490  59.2492830  38.1284890   6.0327540
  59.5909640  38.9726940   5.7381410  58.3108640  38.2768630   6.1492880
  60.0299450  48.0250910   8.0179770  60.6473450  48.7001990   7.7364220
  59.1692570  48.4338890   7.9267270  68.4835780  51.3334450   4.6479590
  68.4962940  50.9296740   3.7801850  67.9311000  52.1081740   4.5441020
  67.8821220  46.2364290   5.9762200  68.2990010  46.0224400   5.1415660
  68.6061040  46.4937080   6.5470820  68.7925330  41.4220830   7.0133310
  68.3796510  42.2474540   7.2673300  68.0601280  40.8365870   6.8209670
  61.3939820  47.8948290   4.0391190  61.0968110  47.2893760   3.3598970
  62.3439640  47.9325600   3.9280550  59.6386740  40.9823940   5.6551020
  60.1901330  41.0919280   4.8804270  60.1530250  41.3561540   6.3706250
  69.4825430  51.4680160   7.7014290  69.0055990  52.2752350   7.5086900
  68.7987220  50.8158490   7.8540500  60.4858250  47.6329980  10.6898990
  59.5886780  47.8569950  10.9372390  60.5111120  47.7564920   9.7410390
  59.3129470  44.5043300   9.2656360  59.1737240  45.3766100   9.6343760
  58.4310830  44.1616110   9.1204300  61.1109820  50.4465000  11.4741510
  61.0825250  50.8507950  10.6069940  60.9474790  49.5175360  11.3113110
  55.2648120  46.2740850   5.1827270  55.3428540  46.4089620   4.2382990
  55.8789800  45.5656740   5.3755390  66.3274630  52.1232950   8.5000500
  66.8419300  52.0340960   9.3022930  65.4843710  52.4692650   8.7928410
  55.3207640  47.3155020   7.7221730  55.4838680  46.8460380   6.9041100
  55.7860090  46.8078580   8.3870570  60.0926410  36.4460780   2.7582300
  59.6494560  37.2270320   2.4266820  60.6511400  36.7690670   3.4653240
  64.3796220  39.3129300   8.3617620  63.9175590  39.5212320   9.1737560
  63.9774330  38.4988650   8.0588290  69.3800730  40.5338250   9.4914280
  68.5294320  40.2344000   9.8123350  69.2202520  40.7780260   8.5798100
  66.4750440  42.0340000  11.5913070  66.8003850  41.2003750  11.2515300
  67.2630770  42.5568520  11.7391400  62.1302310  36.9908110   4.6171900
  62.4274640  37.8970940   4.5363920  62.6787870  36.5026890   4.0031470
  62.3239840  42.4679930  11.1523820  62.2283440  41.5274660  11.0024220
  63.1671820  42.6895000  10.7571890  57.4550380  38.8793600   9.3057600
  57.0613770  39.7268810   9.5130380  56.7668780  38.2419970   9.4966240
  64.0295430  38.9628570  12.3754340  63.3393750  38.7700770  13.0100430
  64.7727730  39.2463210  12.9078640  54.7567430  36.8022060   3.3387680
  54.4680480  37.3724920   4.0512660  55.5013190  36.3226510   3.7018910
  66.3058400  42.8027010   5.2108260  65.5739520  43.3113820   5.5598360
  65.9082740  41.9856990   4.9097040  62.7435790  39.4781210   3.6160750
  62.7471850  39.0371160   2.7665290  63.6386910  39.7998540   3.7232570
  58.5938170  39.3607700   2.5754960  58.2538220  39.8382930   3.3322010
  57.8315490  38.9072820   2.2156060  66.7684310  38.2560690   4.6231200
  66.7857050  38.7069340   5.4673050  66.5199890  37.3566330   4.8364640
  56.8946620  46.6906450   9.8817540  56.5101410  46.0500120  10.4800500
  57.2058810  47.3942570  10.4512270  63.0443760  43.5382990   5.3626160
  63.4113890  43.0641560   6.1087500  62.8548820  44.4124560   5.7034500
  60.8343130  42.5791630   7.6810370  60.5300200  43.4583610   7.9060730
  61.7889590  42.6391420   7.7167810  65.5031700  45.8527040   9.9572610
  65.4369010  44.9322710   9.7030200  64.8736840  45.9502480  10.6717250
  59.4062320  46.4533000   1.9156030  59.9240990  45.6501260   1.8612920
  58.9546340  46.3912140   2.7572860  56.8906860  43.4194370   8.8281730
  56.5321800  44.0848220   9.4155070  56.5961420  42.5877920   9.1994350
  60.0919980  43.8778610  11.7121280  59.7920120  44.0235790  10.8149100
  60.8631220  43.3183900  11.6194670  65.4348430  48.6747610   9.7076410
  65.4492970  47.7428570   9.4895320  64.7273530  48.7607370  10.3466180
  67.1759230  47.0415120   2.5528840  67.5283050  46.4443250   1.8930210
  66.2921560  46.7159350   2.7237090  64.8682330  50.3165180   6.8016910
  65.5124550  50.5224560   7.4790330  65.2311770  49.5553580   6.3487760
  66.1414410  48.3197530   5.5194360  66.7836640  47.6190690   5.6326530
  66.6663760  49.0995970   5.3391250  67.9152030  49.1192430   8.7230420
  68.2508270  49.7059120   9.4008340  66.9952370  48.9885140   8.9528210
  55.4655430  36.9087610   9.5053830  54.7513950  37.1084530  10.1106440
  55.8850470  36.1327180   9.8768630  55.7528020  50.8967870  10.4920360
  55.8619140  49.9562610  10.3515750  55.1008580  51.1622620   9.8434090
  63.7440610  49.1683760  11.8918480  63.4237480  48.4493000  12.4364170
  63.0698970  49.8438830  11.9654540  66.9594210  39.4009920   7.2555280
  67.3275030  38.5805130   7.5834850  66.0992410  39.4611810   7.6710930
  63.9196200  42.0549510   7.4793250  64.4181450  42.5295330   8.1445100
  64.0619150  41.1313030   7.6863280  69.4185070  43.5150650   1.7683000
  68.4775210  43.5300880   1.9430690  69.7329140  42.7286610   2.2143300
  58.8928180  52.7790710   3.1154390  59.6290660  52.2306170   3.3862960
  59.2769100  53.6446720   2.9760380  57.8986460  51.9636780  12.3039970
  58.6999190  52.2848830  12.7175370  57.3838280  51.6032360  13.0259880
  66.7351090  48.0716650  12.2515380  66.1289250  48.0948250  11.5111130
  66.4305200  47.3399690  12.7882630  68.1651460  51.7996940  10.8624790
  69.1173210  51.7154960  10.8125030  68.0179680  52.4638650  11.5358580
  55.6184270  44.4510240  11.2476020  56.1223290  43.8717520  11.8192250
  54.8791690  44.7350470  11.7852390  62.6722210  45.8581230  10.7811540
  61.9067880  46.4266230  10.6966210  62.8538170  45.5657440   9.8879770
  57.6507350  42.5939830  12.1426090  57.6912690  42.2953700  13.0511320
  58.5052850  42.9947440  11.9833610  59.5913160  41.1731930  10.1100580
  59.0609620  40.6822880   9.4823920  60.2601230  41.6016130   9.5758510
  68.4891220  45.6401390   9.8741770  68.9032240  45.7946470  10.7232190
  67.5542220  45.7656610  10.0367550  68.9613390  42.9797550  11.8780920
  69.5434160  42.2249870  11.7901400  69.1375160  43.5104990  11.1012400
  60.0785460  38.1394300  10.1897870  59.9842330  37.5215050   9.4648740
  59.4982850  38.8660590   9.9627780  62.8446900  36.6967540   7.2225260
  62.3964200  36.7191800   6.3770810  62.2112100  36.2986560   7.8195560
  63.2506450  45.5921870   7.8437700  63.6694560  46.4354600   7.6713940
  62.3315080  45.7293910   7.6144480  65.5870350  43.3238050   9.2275540
  65.7066560  42.7279190   9.9670380  66.4464350  43.3607740   8.8076840
  67.9258250  43.8775240   7.8038050  67.3993470  44.4017860   7.2003190
  68.2689590  44.5102630   8.4347780  61.1013870  51.8974880   8.9595430
  60.5634960  52.6220940   8.6404130  61.3547830  51.4205220   8.1692770
  62.3539120  39.8659400  10.4851360  62.9438810  39.5575250  11.1729180
  61.5359360  39.3939150  10.6411260  67.1732550  39.4825210  10.7184380
  66.4848070  38.8206750  10.6534370  67.8938570  39.0363480  11.1632840
  63.9576080  53.1326090   9.2182080  63.8834780  54.0361230   9.5254450
  63.0554920  52.8137990   9.1904150  55.3603370  50.4600680   2.5215700
  55.6906380  49.5921740   2.2894340  55.7894370  50.6659200   3.3520660
  55.8493580  51.3271270   5.2597330  55.4124570  51.5072070   6.0921480
  56.4171260  52.0845890   5.1179050  56.7193940  44.2244070   6.1589550
  57.0866980  44.1371470   7.0385570  56.1504760  43.4610620   6.0596410
  56.2709940  41.1353160  10.0647970  55.3765990  41.1019920  10.4041680
  56.8107490  41.3339950  10.8299220  56.7749650  35.4101490   4.4131190
  57.4225840  34.8598870   3.9726350  57.1951490  35.6644640   5.2347000
  56.5281650  35.5657160   7.1556510  56.1796470  36.0220980   7.9214690
  56.1969350  34.6714290   7.2378940  58.1346020  48.7376760  11.3209700
  58.0915650  48.3669670  12.2024160  58.2657030  49.6754330  11.4611520
  61.8352050  50.2936350   6.9219420  61.5943410  50.5610910   6.0349940
  62.7754690  50.4642080   6.9770280  64.0406470  36.7569040  10.6775930
  63.9795360  37.3490870  11.4271340  64.9806850  36.6495000  10.5326190
  66.6781030  36.4139100  10.3168220  67.2921440  36.7318390   9.6549300
  67.2230590  35.9287690  10.9364080  57.2002290  35.0933360  10.4307280
  57.7485280  34.9121410   9.6673390  57.2657600  34.3027470  10.9663590
  57.9734050  51.6839010   8.4407480  57.3794370  51.5523710   9.1797520
  57.9657890  50.8477150   7.9749580  67.4189070  34.9771240   6.6437510
  66.5448910  35.3106350   6.4410440  67.3099820  34.5044420   7.4689380
  68.3261050  37.1842110   8.0279230  67.9974410  36.3693870   7.6480960
  69.2743350  37.1411920   7.9044920  57.6046280  49.0497390   7.3915520
  56.8780340  48.4302680   7.3241470  57.6655430  49.4438000   6.5213600
  61.2091380  51.2642390   4.1764930  61.7256400  50.6529750   3.6513190
  61.8588760  51.7671170   4.6675940  63.9486880  52.1550880   5.0033910
  64.2364690  51.9005180   4.1266920  64.4610100  51.6028240   5.5939480
  65.1663890  35.8941080   5.5830420  64.3835680  36.3686580   5.8627180
  64.8726820  34.9895910   5.4743600  67.5543090  34.9770280   2.3329520
  68.1572460  35.5490490   2.8078040  66.8136080  35.5409720   2.1103420
  64.0159240  53.0766980  12.3702110  64.9426550  52.8411250  12.4138070
  64.0009670  53.9038980  11.8888140  61.2022850  35.7411730  12.1343990
  60.9207120  36.2445330  11.3704810  61.5842550  34.9433480  11.7686120
  67.8038310  35.1565310  12.7124460  67.6903760  35.4759920  13.6075980
  68.6208050  35.5577820  12.4161740  66.7096460  24.4014290  58.1733160
  66.6290510  23.4868900  57.9024870  66.2960880  24.8981360  57.4672870
  64.8414500  26.1793310  60.0542430  64.0656600  25.6993750  60.3441000
  65.4927430  25.4998960  59.8798590  68.8621930  30.5853500  58.8341560
  68.4003460  29.8140740  59.1628730  69.6747480  30.6119570  59.3394010
  58.8381590  30.5253210  61.1276210  59.1409630  29.6350950  60.9486430
  59.5825180  31.0823430  60.8998460  57.2672280  21.4515010  54.7160580
  56.3788980  21.7930980  54.6140460  57.5513470  21.2515330  53.8241410
  55.2305290  24.0520660  60.6000280  55.8021400  23.2842860  60.6003920
  55.2306830  24.3509420  59.6906890  65.0885240  32.8711510  58.4545550
  64.4696680  33.3269010  57.8839990  65.9437020  33.0262970  58.0535250
  64.2823490  28.8550500  60.0612590  64.2131770  27.9140440  59.9001720
  65.0443350  28.9451910  60.6335160  65.3128660  21.6620880  60.2881520
  65.6893480  20.7892760  60.1755190  65.2148170  21.9979580  59.3971960
  59.4433670  20.0346510  55.7498960  59.5500420  20.9350240  56.0567720
  58.5326030  19.9864480  55.4593610  61.2841400  23.0032880  60.0824140
  61.7919620  23.5013850  60.7229160  61.8154640  22.2268080  59.9063500
  65.9548590  27.7550750  55.8477460  65.3365860  28.2200200  55.2840180
  66.4671840  28.4478230  56.2646970  69.3314260  21.0971700  59.9937400
  68.6269830  21.3856590  60.5740510  69.6926420  21.9071810  59.6336960
  55.3231790  28.4407280  53.2217090  54.9459770  28.9294380  52.4901990
  55.5804860  29.1132560  53.8523620  62.9320720  16.8423670  58.6802600
  63.2395700  16.2870560  57.9638100  62.0021420  16.9768130  58.4975590
  68.4835780  32.5590960  60.9710060  68.4962940  32.1553250  60.1032320
  67.9311000  33.3338250  60.8671490  69.7781200  29.2807180  56.0600230
  69.6677530  28.3381510  56.1849650  69.7749450  29.6422820  56.9462990
  65.3201480  24.9072500  55.4162720  64.3930760  24.8409880  55.6451190
  65.4726300  25.8452630  55.3017960  65.3070560  21.1789500  52.4129880
  64.3674230  21.3403460  52.4982340  65.6253820  21.8975180  51.8665870
  69.3498770  26.4692800  55.9197970  68.7311190  26.1312350  55.2724270
  69.3323220  25.8252560  56.6277160  60.9258120  25.4337240  58.1982450
  60.5215120  24.7214490  57.7028350  61.0121240  25.0890480  59.0870490
  61.3939820  29.1204800  60.3621660  61.0968110  28.5150270  59.6829440
  62.3439640  29.1582110  60.2511020  67.5263470  25.7079610  52.9270720
  67.9656750  24.8702040  52.7808540  68.2391890  26.3409010  53.0134860
  65.6358850  30.6475680  56.8951960  66.0754760  31.3900010  56.4807350
  65.5745740  30.8902250  57.8190920  57.6262750  24.3282220  55.6989100
  57.5060350  25.0544310  55.0870370  57.3163640  23.5585130  55.2217010
  56.5095750  29.1997550  57.9163920  56.1023830  29.3412140  57.0617520
  57.4008760  28.9157710  57.7135130  68.3029030  33.6344800  54.2514970
  68.1430170  33.3447740  55.1496800  68.1375740  32.8584930  53.7160200
  60.7817410  33.4143330  56.0286590  60.6059890  32.4978870  55.8154390
  59.9273150  33.7730620  56.2684390  68.0055160  31.1432360  52.8112970
  67.3120320  31.1409650  52.1515250  68.7478020  30.7191680  52.3807140
  67.5705090  32.7695070  56.8861460  68.0262040  31.9884450  57.2000080
  67.9097610  33.4801890  57.4302640  60.0926410  17.6717290  59.0812770
  59.6494560  18.4526830  58.7497290  60.6511400  17.9947180  59.7883710
  63.2085230  17.2927990  53.9618600  62.5839410  17.2887860  54.6871910
  63.1215350  16.4258950  53.5654570  62.1302310  18.2164620  60.9402370
  62.4274640  19.1227450  60.8594390  62.6787870  17.7283400  60.3261940
  59.8840630  22.7950860  56.8094020  59.6581550  22.5788030  57.7140640
  59.1033160  23.2279320  56.4639990  67.1138390  22.8014230  55.4084670
  66.5147280  23.5250030  55.2248290  67.6618000  22.7391010  54.6261120
  65.7203260  21.4377770  57.4387950  66.1132830  21.7549970  56.6256640
  66.0820110  20.5589650  57.5532470  54.7567430  18.0278570  59.6618150
  54.4680480  18.5981430  60.3743130  55.5013190  17.5483020  60.0249380
  54.9437660  21.9698690  50.8720870  54.8612330  22.9129450  51.0135860
  54.5920720  21.8273600  49.9933220  62.7435790  20.7037720  59.9391220
  62.7471850  20.2627670  59.0895760  63.6386910  21.0255050  60.0463040
  58.5938170  20.5864210  58.8985430  58.2538220  21.0639440  59.6552480
  57.8315490  20.1329330  58.5386530  62.8055940  21.7049800  52.9297980
  62.9268760  21.6636280  53.8783800  62.4204450  22.5673950  52.7744710
  61.8177440  24.0150940  52.3281280  61.2494340  23.5669190  51.7017190
  62.5266440  24.3743720  51.7946430  55.9084250  19.5083190  57.8150100
  55.6231170  19.1438860  58.6528720  55.8463110  18.7763650  57.2013240
  59.3624920  28.0109130  54.6007690  58.5887180  27.4706750  54.4406410
  60.0919550  27.4915740  54.2625450  65.5822840  18.4012450  54.5363470
  64.7687450  17.9025620  54.4608780  65.3884790  19.2410700  54.1199820
  68.2971230  22.7732100  52.8325630  69.1850850  23.0849330  52.6576970
  68.2676320  21.9004350  52.4406210  59.4062320  27.6789510  58.2386500
  59.9240990  26.8757770  58.1843390  58.9546340  27.6168650  59.0803330
  64.2931820  28.9455790  53.5113800  64.6347520  29.6898020  53.0157120
  63.4644530  29.2586910  53.8738630  67.1759230  28.2671630  58.8759310
  67.5283050  27.6699760  58.2160680  66.2921560  27.9415860  59.0467560
  63.2622510  29.0269320  56.2829720  63.9493640  29.5738530  56.6637310
  62.4754930  29.5710050  56.3179330  55.4014910  24.6442140  51.7746800
  56.2709760  24.9266940  52.0582720  54.9105230  25.4578010  51.6595610
  62.5649720  26.0315350  55.8955080  63.0212500  26.8420600  56.1215270
  62.2137930  25.7138490  56.7273570  58.4661500  16.3753000  56.3677600
  58.3376130  16.3670900  57.3162520  57.6423520  16.7136090  56.0168610
  55.7686160  33.8569520  52.3408430  56.1283800  34.4558860  51.6865700
  55.6278500  34.4029410  53.1143460  61.7854780  31.2400720  53.1582100
  61.7764880  31.9730410  52.5426610  60.8653140  30.9932300  53.2509060
  57.3861420  26.4615610  53.9028860  56.7789370  27.2014510  53.9124160
  57.8610770  26.5514970  53.0767060  64.7714380  31.3028960  51.8207290
  64.8726360  31.0992950  50.8909270  63.8716120  31.0487240  52.0255070
  62.2940270  21.8609320  55.8031190  61.5856420  22.3295660  56.2444800
  62.5784750  21.2031330  56.4376380  66.3255700  18.5859980  57.2426980
  66.2023480  18.6046110  56.2936490  67.2740260  18.6338920  57.3625380
  63.4132490  33.8215280  56.5154960  63.6673990  33.7836670  55.5934330
  62.4644970  33.6948610  56.5083210  60.4975290  20.1694400  53.1781900
  61.3465820  20.6064550  53.1122090  60.1306560  20.4814660  54.0053960
  69.4185070  24.7407160  58.0913470  68.4775210  24.7557390  58.2661160
  69.7329140  23.9543120  58.5373770  59.3966710  26.4226760  51.6517430
  60.1629980  26.3108120  52.2142860  59.4741400  25.7264730  50.9994200
  58.0913470  23.8551830  52.3350320  58.1717060  22.9079340  52.4467720
  58.9833220  24.1858710  52.4410980  58.8928180  34.0047220  59.4384860
  59.6290660  33.4562680  59.7093430  59.2769100  34.8703230  59.2990850
  55.7773660  30.0720790  55.3126370  54.8513440  30.3141930  55.3031780
  56.2430090  30.8995050  55.1911120  62.0030490  33.1777530  51.2610430
  62.7959100  33.4666360  50.8092220  61.4834840  32.7469700  50.5822910
  62.5207890  28.3980940  51.1252780  62.4158530  27.7833290  51.8514160
  62.3532110  27.8746830  50.3415790  65.7610620  27.4600970  51.7294770
  65.2120720  27.9070270  52.3737510  66.3829880  26.9550220  52.2532440
  61.4285740  26.4191890  53.6260070  61.8502160  26.2531760  54.4691460
  61.5536580  25.6092120  53.1315210  63.9413380  25.4429500  50.8737170
  64.4619040  24.7278520  50.5078320  64.5881780  26.0815370  51.1737680
  60.3244640  22.4925120  50.5718230  60.1233700  21.6292480  50.9331570
  60.1536690  22.4058480  49.6339830  67.8032950  17.3033350  53.1005110
  68.0835240  16.4601250  53.4564530  67.0298680  17.5356460  53.6143860
  59.1227440  19.5925740  50.5596110  59.4253340  19.5993170  49.6515260
  59.8622030  19.2423600  51.0563770  62.3412370  18.5360360  51.5452310
  61.9934370  17.8584350  50.9654760  62.5425140  18.0749870  52.3595700
  64.5061410  33.5241110  53.1638910  65.4012200  33.8626080  53.1857670
  64.5379040  32.8020520  52.5363190  58.1457570  28.8968160  51.3925910
  58.5832440  29.4397830  52.0483490  58.6305300  28.0715110  51.4022250
  55.3603370  31.6857190  58.8446170  55.6906380  30.8178250  58.6124810
  55.7894370  31.8915710  59.6751130  59.9565290  30.0166200  56.5048140
  59.6560830  29.8931170  57.4052050  59.8502780  29.1574790  56.0963870
  55.6818010  25.0648010  57.9416680  55.0266850  24.7959650  57.2976380
  56.5195960  24.9552490  57.4918660  68.6308450  19.8589300  52.1635170
  69.0493330  19.6720280  51.3231830  68.3244510  19.0068350  52.4738100
  54.8956090  22.2746940  53.8842010  53.9920170  22.5377140  53.7093670
  55.3796710  22.5458110  53.1041970  57.4383300  21.3312480  51.7936390
  58.1475000  20.9095700  51.3083670  56.7223240  21.3987710  51.1619740
  57.0857460  17.3851810  50.8339040  57.8085590  17.9260750  51.1520260
  57.3581980  17.1115230  49.9580580  61.2091380  32.4898900  60.4995400
  61.7256400  31.8786260  59.9743660  61.8588760  32.9927680  60.9906410
  55.8876280  33.5928290  56.9242750  55.7198320  32.9598970  57.6224640
  55.0210790  33.7987690  56.5736940  56.5104300  17.4245070  54.4274610
  57.2683660  17.5373950  53.8538640  56.0481470  18.2614270  54.3818040
  63.0518110  19.5384340  57.4176920  62.2392620  19.1641230  57.0772800
  63.5559750  18.7829420  57.7198110  67.5543090  16.2026790  58.6559990
  68.1572460  16.7747000  59.1308510  66.8136080  16.7666230  58.4333890
  57.4938980  32.2861520  54.3692890  56.9686600  32.6669550  53.6654850
  57.4183560  32.9112290  55.0902600  58.8829450  17.9509120  52.9676580
  59.4122210  17.1638920  52.8384530  59.5157770  18.6300310  53.2012110
  61.0767290  17.6884260  56.0221970  60.4470030  16.9871570  56.1892100
  60.5372430  18.4488390  55.8055130  60.0931950  34.2343900  53.2442140
  60.8250770  33.9503180  52.6966030  60.3525620  33.9957180  54.1341520
  59.2546740  30.3508630  53.2488470  58.6255620  30.8193730  53.7974300
  59.3694570  29.5057850  53.6834660  66.7096460  24.4014290  39.3989670
  66.6290510  23.4868900  39.1281380  66.2960880  24.8981360  38.6929380
  64.8414500  26.1793310  41.2798940  64.0656600  25.6993750  41.5697510
  65.4927430  25.4998960  41.1055100  58.8580330  26.4913120  42.1574700
  58.0265210  26.2361830  42.5571210  59.4661310  26.5623890  42.8932620
  68.8621930  30.5853500  40.0598070  68.4003460  29.8140740  40.3885240
  69.6747480  30.6119570  40.5650520  58.8381590  30.5253210  42.3532720
  59.1409630  29.6350950  42.1742940  59.5825180  31.0823430  42.1254970
  57.2672280  21.4515010  35.9417090  56.3788980  21.7930980  35.8396970
  57.5513470  21.2515330  35.0497920  55.2305290  24.0520660  41.8256790
  55.8021400  23.2842860  41.8260430  55.2306830  24.3509420  40.9163400
  65.0885240  32.8711510  39.6802060  64.4696680  33.3269010  39.1096500
  65.9437020  33.0262970  39.2791760  64.2823490  28.8550500  41.2869100
  64.2131770  27.9140440  41.1258230  65.0443350  28.9451910  41.8591670
  56.4730160  19.4605020  43.6125720  56.2933000  18.5630770  43.8928480
  56.0710240  20.0076890  44.2872670  65.3128660  21.6620880  41.5138030
  65.6893480  20.7892760  41.4011700  65.2148170  21.9979580  40.6228470
  59.4433670  20.0346510  36.9755470  59.5500420  20.9350240  37.2824230
  58.5326030  19.9864480  36.6850120  57.0916830  21.9565520  42.2208060
  57.7726940  22.2203890  42.8395460  56.7764880  21.1166390  42.5546070
  61.2841400  23.0032880  41.3080650  61.7919620  23.5013850  41.9485670
  61.8154640  22.2268080  41.1320010  59.5677500  17.6431440  45.5744070
  59.5695940  18.1603830  44.7689970  58.7381810  17.1661620  45.5514000
  65.9548590  27.7550750  37.0733970  65.3365860  28.2200200  36.5096690
  66.4671840  28.4478230  37.4903480  60.8180350  27.2826620  43.7517570
  60.4849730  27.9095540  44.3938640  60.9947030  27.8088500  42.9719240
  69.3314260  21.0971700  41.2193910  68.6269830  21.3856590  41.7997020
  69.6926420  21.9071810  40.8593470  59.2492830  19.3541400  43.5814520
  59.5909640  20.1983450  43.2868390  58.3108640  19.5025140  43.6979860
  60.0299450  29.2507420  45.5666750  60.6473450  29.9258500  45.2851200
  59.1692570  29.6595400  45.4754250  55.3231790  28.4407280  34.4473600
  54.9459770  28.9294380  33.7158500  55.5804860  29.1132560  35.0780130
  62.9320720  16.8423670  39.9059110  63.2395700  16.2870560  39.1894610
  62.0021420  16.9768130  39.7232100  68.4835780  32.5590960  42.1966570
  68.4962940  32.1553250  41.3288830  67.9311000  33.3338250  42.0928000
  69.7781200  29.2807180  37.2856740  69.6677530  28.3381510  37.4106160
  69.7749450  29.6422820  38.1719500  67.8821220  27.4620800  43.5249180
  68.2990010  27.2480910  42.6902640  68.6061040  27.7193590  44.0957800
  65.3201480  24.9072500  36.6419230  64.3930760  24.8409880  36.8707700
  65.4726300  25.8452630  36.5274470  65.3070560  21.1789500  33.6386390
  64.3674230  21.3403460  33.7238850  65.6253820  21.8975180  33.0922380
  69.3498770  26.4692800  37.1454480  68.7311190  26.1312350  36.4980780
  69.3323220  25.8252560  37.8533670  68.7925330  22.6477340  44.5620290
  68.3796510  23.4731050  44.8160280  68.0601280  22.0622380  44.3696650
  60.9258120  25.4337240  39.4238960  60.5215120  24.7214490  38.9284860
  61.0121240  25.0890480  40.3127000  61.3939820  29.1204800  41.5878170
  61.0968110  28.5150270  40.9085950  62.3439640  29.1582110  41.4767530
  59.6386740  22.2080450  43.2038000  60.1901330  22.3175790  42.4291250
  60.1530250  22.5818050  43.9193230  69.4825430  32.6936670  45.2501270
  69.0055990  33.5008860  45.0573880  68.7987220  32.0415000  45.4027480
  60.4858250  28.8586490  48.2385970  59.5886780  29.0826460  48.4859370
  60.5111120  28.9821430  47.2897370  67.5263470  25.7079610  34.1527230
  67.9656750  24.8702040  34.0065050  68.2391890  26.3409010  34.2391370
  59.3129470  25.7299810  46.8143340  59.1737240  26.6022610  47.1830740
  58.4310830  25.3872620  46.6691280  65.6358850  30.6475680  38.1208470
  66.0754760  31.3900010  37.7063860  65.5745740  30.8902250  39.0447430
  61.1109820  31.6721510  49.0228490  61.0825250  32.0764460  48.1556920
  60.9474790  30.7431870  48.8600090  57.6262750  24.3282220  36.9245610
  57.5060350  25.0544310  36.3126880  57.3163640  23.5585130  36.4473520
  55.2648120  27.4997360  42.7314250  55.3428540  27.6346130  41.7869970
  55.8789800  26.7913250  42.9242370  56.5095750  29.1997550  39.1420430
  56.1023830  29.3412140  38.2874030  57.4008760  28.9157710  38.9391640
  66.3274630  33.3489460  46.0487480  66.8419300  33.2597470  46.8509910
  65.4843710  33.6949160  46.3415390  68.3029030  33.6344800  35.4771480
  68.1430170  33.3447740  36.3753310  68.1375740  32.8584930  34.9416710
  60.7817410  33.4143330  37.2543100  60.6059890  32.4978870  37.0410900
  59.9273150  33.7730620  37.4940900  68.0055160  31.1432360  34.0369480
  67.3120320  31.1409650  33.3771760  68.7478020  30.7191680  33.6063650
  67.5705090  32.7695070  38.1117970  68.0262040  31.9884450  38.4256590
  67.9097610  33.4801890  38.6559150  55.3207640  28.5411530  45.2708710
  55.4838680  28.0716890  44.4528080  55.7860090  28.0335090  45.9357550
  60.0926410  17.6717290  40.3069280  59.6494560  18.4526830  39.9753800
  60.6511400  17.9947180  41.0140220  64.3796220  20.5385810  45.9104600
  63.9175590  20.7468830  46.7224540  63.9774330  19.7245160  45.6075270
  69.3800730  21.7594760  47.0401260  68.5294320  21.4600510  47.3610330
  69.2202520  22.0036770  46.1285080  66.4750440  23.2596510  49.1400050
  66.8003850  22.4260260  48.8002280  67.2630770  23.7825030  49.2878380
  63.2085230  17.2927990  35.1875110  62.5839410  17.2887860  35.9128420
  63.1215350  16.4258950  34.7911080  62.1302310  18.2164620  42.1658880
  62.4274640  19.1227450  42.0850900  62.6787870  17.7283400  41.5518450
  59.8840630  22.7950860  38.0350530  59.6581550  22.5788030  38.9397150
  59.1033160  23.2279320  37.6896500  67.1138390  22.8014230  36.6341180
  66.5147280  23.5250030  36.4504800  67.6618000  22.7391010  35.8517630
  62.3239840  23.6936440  48.7010800  62.2283440  22.7531170  48.5511200
  63.1671820  23.9151510  48.3058870  65.7203260  21.4377770  38.6644460
  66.1132830  21.7549970  37.8513150  66.0820110  20.5589650  38.7788980
  57.4550380  20.1050110  46.8544580  57.0613770  20.9525320  47.0617360
  56.7668780  19.4676480  47.0453220  64.0295430  20.1885080  49.9241320
  63.3393750  19.9957280  50.5587410  64.7727730  20.4719720  50.4565620
  54.7567430  18.0278570  40.8874660  54.4680480  18.5981430  41.5999640
  55.5013190  17.5483020  41.2505890  54.9437660  21.9698690  32.0977380
  54.8612330  22.9129450  32.2392370  54.5920720  21.8273600  31.2189730
  66.3058400  24.0283520  42.7595240  65.5739520  24.5370330  43.1085340
  65.9082740  23.2113500  42.4584020  62.7435790  20.7037720  41.1647730
  62.7471850  20.2627670  40.3152270  63.6386910  21.0255050  41.2719550
  58.5938170  20.5864210  40.1241940  58.2538220  21.0639440  40.8808990
  57.8315490  20.1329330  39.7643040  62.8055940  21.7049800  34.1554490
  62.9268760  21.6636280  35.1040310  62.4204450  22.5673950  34.0001220
  66.7684310  19.4817200  42.1718180  66.7857050  19.9325850  43.0160030
  66.5199890  18.5822840  42.3851620  61.8177440  24.0150940  33.5537790
  61.2494340  23.5669190  32.9273700  62.5266440  24.3743720  33.0202940
  56.8946620  27.9162960  47.4304520  56.5101410  27.2756630  48.0287480
  57.2058810  28.6199080  47.9999250  63.0443760  24.7639500  42.9113140
  63.4113890  24.2898070  43.6574480  62.8548820  25.6381070  43.2521480
  55.9084250  19.5083190  39.0406610  55.6231170  19.1438860  39.8785230
  55.8463110  18.7763650  38.4269750  60.8343130  23.8048140  45.2297350
  60.5300200  24.6840120  45.4547710  61.7889590  23.8647930  45.2654790
  59.3624920  28.0109130  35.8264200  58.5887180  27.4706750  35.6662920
  60.0919550  27.4915740  35.4881960  65.5822840  18.4012450  35.7619980
  64.7687450  17.9025620  35.6865290  65.3884790  19.2410700  35.3456330
  65.5031700  27.0783550  47.5059590  65.4369010  26.1579220  47.2517180
  64.8736840  27.1758990  48.2204230  68.2971230  22.7732100  34.0582140
  69.1850850  23.0849330  33.8833480  68.2676320  21.9004350  33.6662720
  59.4062320  27.6789510  39.4643010  59.9240990  26.8757770  39.4099900
  58.9546340  27.6168650  40.3059840  64.2931820  28.9455790  34.7370310
  64.6347520  29.6898020  34.2413630  63.4644530  29.2586910  35.0995140
  56.8906860  24.6450880  46.3768710  56.5321800  25.3104730  46.9642050
  56.5961420  23.8134430  46.7481330  60.0919980  25.1035120  49.2608260
  59.7920120  25.2492300  48.3636080  60.8631220  24.5440410  49.1681650
  65.4348430  29.9004120  47.2563390  65.4492970  28.9685080  47.0382300
  64.7273530  29.9863880  47.8953160  67.1759230  28.2671630  40.1015820
  67.5283050  27.6699760  39.4417190  66.2921560  27.9415860  40.2724070
  63.2622510  29.0269320  37.5086230  63.9493640  29.5738530  37.8893820
  62.4754930  29.5710050  37.5435840  55.4014910  24.6442140  33.0003310
  56.2709760  24.9266940  33.2839230  54.9105230  25.4578010  32.8852120
  62.5649720  26.0315350  37.1211590  63.0212500  26.8420600  37.3471780
  62.2137930  25.7138490  37.9530080  64.8682330  31.5421690  44.3503890
  65.5124550  31.7481070  45.0277310  65.2311770  30.7810090  43.8974740
  58.4661500  16.3753000  37.5934110  58.3376130  16.3670900  38.5419030
  57.6423520  16.7136090  37.2425120  66.1414410  29.5454040  43.0681340
  66.7836640  28.8447200  43.1813510  66.6663760  30.3252480  42.8878230
  67.9152030  30.3448940  46.2717400  68.2508270  30.9315630  46.9495320
  66.9952370  30.2141650  46.5015190  55.7686160  33.8569520  33.5664940
  56.1283800  34.4558860  32.9122210  55.6278500  34.4029410  34.3399970
  55.4655430  18.1344120  47.0540810  54.7513950  18.3341040  47.6593420
  55.8850470  17.3583690  47.4255610  55.7528020  32.1224380  48.0407340
  55.8619140  31.1819120  47.9002730  55.1008580  32.3879130  47.3921070
  63.7440610  30.3940270  49.4405460  63.4237480  29.6749510  49.9851150
  63.0698970  31.0695340  49.5141520  61.7854780  31.2400720  34.3838610
  61.7764880  31.9730410  33.7683120  60.8653140  30.9932300  34.4765570
  57.3861420  26.4615610  35.1285370  56.7789370  27.2014510  35.1380670
  57.8610770  26.5514970  34.3023570  66.9594210  20.6266430  44.8042260
  67.3275030  19.8061640  45.1321830  66.0992410  20.6868320  45.2197910
  64.7714380  31.3028960  33.0463800  64.8726360  31.0992950  32.1165780
  63.8716120  31.0487240  33.2511580  62.2940270  21.8609320  37.0287700
  61.5856420  22.3295660  37.4701310  62.5784750  21.2031330  37.6632890
  63.9196200  23.2806020  45.0280230  64.4181450  23.7551840  45.6932080
  64.0619150  22.3569540  45.2350260  66.3255700  18.5859980  38.4683490
  66.2023480  18.6046110  37.5193000  67.2740260  18.6338920  38.5881890
  63.4132490  33.8215280  37.7411470  63.6673990  33.7836670  36.8190840
  62.4644970  33.6948610  37.7339720  60.4975290  20.1694400  34.4038410
  61.3465820  20.6064550  34.3378600  60.1306560  20.4814660  35.2310470
  69.4185070  24.7407160  39.3169980  68.4775210  24.7557390  39.4917670
  69.7329140  23.9543120  39.7630280  59.3966710  26.4226760  32.8773940
  60.1629980  26.3108120  33.4399370  59.4741400  25.7264730  32.2250710
  58.0913470  23.8551830  33.5606830  58.1717060  22.9079340  33.6724230
  58.9833220  24.1858710  33.6667490  58.8928180  34.0047220  40.6641370
  59.6290660  33.4562680  40.9349940  59.2769100  34.8703230  40.5247360
  55.7773660  30.0720790  36.5382880  54.8513440  30.3141930  36.5288290
  56.2430090  30.8995050  36.4167630  57.8986460  33.1893290  49.8526950
  58.6999190  33.5105340  50.2662350  57.3838280  32.8288870  50.5746860
  62.0030490  33.1777530  32.4866940  62.7959100  33.4666360  32.0348730
  61.4834840  32.7469700  31.8079420  66.7351090  29.2973160  49.8002360
  66.1289250  29.3204760  49.0598110  66.4305200  28.5656200  50.3369610
  68.1651460  33.0253450  48.4111770  69.1173210  32.9411470  48.3612010
  68.0179680  33.6895160  49.0845560  55.6184270  25.6766750  48.7963000
  56.1223290  25.0974030  49.3679230  54.8791690  25.9606980  49.3339370
  62.5207890  28.3980940  32.3509290  62.4158530  27.7833290  33.0770670
  62.3532110  27.8746830  31.5672300  62.6722210  27.0837740  48.3298520
  61.9067880  27.6522740  48.2453190  62.8538170  26.7913950  47.4366750
  65.7610620  27.4600970  32.9551280  65.2120720  27.9070270  33.5994020
  66.3829880  26.9550220  33.4788950  57.6507350  23.8196340  49.6913070
  57.6912690  23.5210210  50.5998300  58.5052850  24.2203950  49.5320590
  61.4285740  26.4191890  34.8516580  61.8502160  26.2531760  35.6947970
  61.5536580  25.6092120  34.3571720  59.5913160  22.3988440  47.6587560
  59.0609620  21.9079390  47.0310900  60.2601230  22.8272640  47.1245490
  63.9413380  25.4429500  32.0993680  64.4619040  24.7278520  31.7334830
  64.5881780  26.0815370  32.3994190  68.4891220  26.8657900  47.4228750
  68.9032240  27.0202980  48.2719170  67.5542220  26.9913120  47.5854530
  68.9613390  24.2054060  49.4267900  69.5434160  23.4506380  49.3388380
  69.1375160  24.7361500  48.6499380  60.0785460  19.3650810  47.7384850
  59.9842330  18.7471560  47.0135720  59.4982850  20.0917100  47.5114760
  62.8446900  17.9224050  44.7712240  62.3964200  17.9448310  43.9257790
  62.2112100  17.5243070  45.3682540  63.2506450  26.8178380  45.3924680
  63.6694560  27.6611110  45.2200920  62.3315080  26.9550420  45.1631460
  65.5870350  24.5494560  46.7762520  65.7066560  23.9535700  47.5157360
  66.4464350  24.5864250  46.3563820  67.9258250  25.1031750  45.3525030
  67.3993470  25.6274370  44.7490170  68.2689590  25.7359140  45.9834760
  60.3244640  22.4925120  31.7974740  60.1233700  21.6292480  32.1588080
  60.1536690  22.4058480  30.8596340  61.1013870  33.1231390  46.5082410
  60.5634960  33.8477450  46.1891110  61.3547830  32.6461730  45.7179750
  62.3539120  21.0915910  48.0338340  62.9438810  20.7831760  48.7216160
  61.5359360  20.6195660  48.1898240  67.1732550  20.7081720  48.2671360
  66.4848070  20.0463260  48.2021350  67.8938570  20.2619990  48.7119820
  67.8032950  17.3033350  34.3261620  68.0835240  16.4601250  34.6821040
  67.0298680  17.5356460  34.8400370  59.1227440  19.5925740  31.7852620
  59.4253340  19.5993170  30.8771770  59.8622030  19.2423600  32.2820280
  63.9576080  34.3582600  46.7669060  63.8834780  35.2617740  47.0741430
  63.0554920  34.0394500  46.7391130  62.3412370  18.5360360  32.7708820
  61.9934370  17.8584350  32.1911270  62.5425140  18.0749870  33.5852210
  64.5061410  33.5241110  34.3895420  65.4012200  33.8626080  34.4114180
  64.5379040  32.8020520  33.7619700  58.1457570  28.8968160  32.6182420
  58.5832440  29.4397830  33.2740000  58.6305300  28.0715110  32.6278760
  55.3603370  31.6857190  40.0702680  55.6906380  30.8178250  39.8381320
  55.7894370  31.8915710  40.9007640  59.9565290  30.0166200  37.7304650
  59.6560830  29.8931170  38.6308560  59.8502780  29.1574790  37.3220380
  55.8493580  32.5527780  42.8084310  55.4124570  32.7328580  43.6408460
  56.4171260  33.3102400  42.6666030  55.6818010  25.0648010  39.1673190
  55.0266850  24.7959650  38.5232890  56.5195960  24.9552490  38.7175170
  68.6308450  19.8589300  33.3891680  69.0493330  19.6720280  32.5488340
  68.3244510  19.0068350  33.6994610  56.7193940  25.4500580  43.7076530
  57.0866980  25.3627980  44.5872550  56.1504760  24.6867130  43.6083390
  56.2709940  22.3609670  47.6134950  55.3765990  22.3276430  47.9528660
  56.8107490  22.5596460  48.3786200  54.8956090  22.2746940  35.1098520
  53.9920170  22.5377140  34.9350180  55.3796710  22.5458110  34.3298480
  57.4383300  21.3312480  33.0192900  58.1475000  20.9095700  32.5340180
  56.7223240  21.3987710  32.3876250  57.0857460  17.3851810  32.0595550
  57.8085590  17.9260750  32.3776770  57.3581980  17.1115230  31.1837090
  56.7749650  16.6358000  41.9618170  57.4225840  16.0855380  41.5213330
  57.1951490  16.8901150  42.7833980  56.5281650  16.7913670  44.7043490
  56.1796470  17.2477490  45.4701670  56.1969350  15.8970800  44.7865920
  58.1346020  29.9633270  48.8696680  58.0915650  29.5926180  49.7511140
  58.2657030  30.9010840  49.0098500  61.8352050  31.5192860  44.4706400
  61.5943410  31.7867420  43.5836920  62.7754690  31.6898590  44.5257260
  64.0406470  17.9825550  48.2262910  63.9795360  18.5747380  48.9758320
  64.9806850  17.8751510  48.0813170  66.6781030  17.6395610  47.8655200
  67.2921440  17.9574900  47.2036280  67.2230590  17.1544200  48.4851060
  57.2002290  16.3189870  47.9794260  57.7485280  16.1377920  47.2160370
  57.2657600  15.5283980  48.5150570  57.9734050  32.9095520  45.9894460
  57.3794370  32.7780220  46.7284500  57.9657890  32.0733660  45.5236560
  67.4189070  16.2027750  44.1924490  66.5448910  16.5362860  43.9897420
  67.3099820  15.7300930  45.0176360  68.3261050  18.4098620  45.5766210
  67.9974410  17.5950380  45.1967940  69.2743350  18.3668430  45.4531900
  57.6046280  30.2753900  44.9402500  56.8780340  29.6559190  44.8728450
  57.6655430  30.6694510  44.0700580  61.2091380  32.4898900  41.7251910
  61.7256400  31.8786260  41.2000170  61.8588760  32.9927680  42.2162920
  63.9486880  33.3807390  42.5520890  64.2364690  33.1261690  41.6753900
  64.4610100  32.8284750  43.1426460  65.1663890  17.1197590  43.1317400
  64.3835680  17.5943090  43.4114160  64.8726820  16.2152420  43.0230580
  55.8876280  33.5928290  38.1499260  55.7198320  32.9598970  38.8481150
  55.0210790  33.7987690  37.7993450  56.5104300  17.4245070  35.6531120
  57.2683660  17.5373950  35.0795150  56.0481470  18.2614270  35.6074550
  63.0518110  19.5384340  38.6433430  62.2392620  19.1641230  38.3029310
  63.5559750  18.7829420  38.9454620  67.5543090  16.2026790  39.8816500
  68.1572460  16.7747000  40.3565020  66.8136080  16.7666230  39.6590400
  57.4938980  32.2861520  35.5949400  56.9686600  32.6669550  34.8911360
  57.4183560  32.9112290  36.3159110  58.8829450  17.9509120  34.1933090
  59.4122210  17.1638920  34.0641040  59.5157770  18.6300310  34.4268620
  61.0767290  17.6884260  37.2478480  60.4470030  16.9871570  37.4148610
  60.5372430  18.4488390  37.0311640  64.0159240  34.3023490  49.9189090
  64.9426550  34.0667760  49.9625050  64.0009670  35.1295490  49.4375120
  61.2022850  16.9668240  49.6830970  60.9207120  17.4701840  48.9191790
  61.5842550  16.1689990  49.3173100  60.0931950  34.2343900  34.4698650
  60.8250770  33.9503180  33.9222540  60.3525620  33.9957180  35.3598030
  59.2546740  30.3508630  34.4744980  58.6255620  30.8193730  35.0230810
  59.3694570  29.5057850  34.9091170  67.8038310  16.3821820  50.2611440
  67.6903760  16.7016430  51.1562960  68.6208050  16.7834330  49.9648720
  66.7096460  24.4014290  20.6246180  66.6290510  23.4868900  20.3537890
  66.2960880  24.8981360  19.9185890  64.8414500  26.1793310  22.5055450
  64.0656600  25.6993750  22.7954020  65.4927430  25.4998960  22.3311610
  58.8580330  26.4913120  23.3831210  58.0265210  26.2361830  23.7827720
  59.4661310  26.5623890  24.1189130  68.8621930  30.5853500  21.2854580
  68.4003460  29.8140740  21.6141750  69.6747480  30.6119570  21.7907030
  58.8381590  30.5253210  23.5789230  59.1409630  29.6350950  23.3999450
  59.5825180  31.0823430  23.3511480  57.2672280  21.4515010  17.1673600
  56.3788980  21.7930980  17.0653480  57.5513470  21.2515330  16.2754430
  55.2305290  24.0520660  23.0513300  55.8021400  23.2842860  23.0516940
  55.2306830  24.3509420  22.1419910  65.0885240  32.8711510  20.9058570
  64.4696680  33.3269010  20.3353010  65.9437020  33.0262970  20.5048270
  64.2823490  28.8550500  22.5125610  64.2131770  27.9140440  22.3514740
  65.0443350  28.9451910  23.0848180  56.4730160  19.4605020  24.8382230
  56.2933000  18.5630770  25.1184990  56.0710240  20.0076890  25.5129180
  65.3128660  21.6620880  22.7394540  65.6893480  20.7892760  22.6268210
  65.2148170  21.9979580  21.8484980  59.4433670  20.0346510  18.2011980
  59.5500420  20.9350240  18.5080740  58.5326030  19.9864480  17.9106630
  57.0916830  21.9565520  23.4464570  57.7726940  22.2203890  24.0651970
  56.7764880  21.1166390  23.7802580  61.2841400  23.0032880  22.5337160
  61.7919620  23.5013850  23.1742180  61.8154640  22.2268080  22.3576520
  59.5677500  17.6431440  26.8000580  59.5695940  18.1603830  25.9946480
  58.7381810  17.1661620  26.7770510  65.9548590  27.7550750  18.2990480
  65.3365860  28.2200200  17.7353200  66.4671840  28.4478230  18.7159990
  60.8180350  27.2826620  24.9774080  60.4849730  27.9095540  25.6195150
  60.9947030  27.8088500  24.1975750  69.3314260  21.0971700  22.4450420
  68.6269830  21.3856590  23.0253530  69.6926420  21.9071810  22.0849980
  59.2492830  19.3541400  24.8071030  59.5909640  20.1983450  24.5124900
  58.3108640  19.5025140  24.9236370  60.0299450  29.2507420  26.7923260
  60.6473450  29.9258500  26.5107710  59.1692570  29.6595400  26.7010760
  55.3231790  28.4407280  15.6730110  54.9459770  28.9294380  14.9415010
  55.5804860  29.1132560  16.3036640  62.9320720  16.8423670  21.1315620
  63.2395700  16.2870560  20.4151120  62.0021420  16.9768130  20.9488610
  68.4835780  32.5590960  23.4223080  68.4962940  32.1553250  22.5545340
  67.9311000  33.3338250  23.3184510  69.7781200  29.2807180  18.5113250
  69.6677530  28.3381510  18.6362670  69.7749450  29.6422820  19.3976010
  67.8821220  27.4620800  24.7505690  68.2990010  27.2480910  23.9159150
  68.6061040  27.7193590  25.3214310  65.3201480  24.9072500  17.8675740
  64.3930760  24.8409880  18.0964210  65.4726300  25.8452630  17.7530980
  65.3070560  21.1789500  14.8642900  64.3674230  21.3403460  14.9495360
  65.6253820  21.8975180  14.3178890  69.3498770  26.4692800  18.3710990
  68.7311190  26.1312350  17.7237290  69.3323220  25.8252560  19.0790180
  68.7925330  22.6477340  25.7876800  68.3796510  23.4731050  26.0416790
  68.0601280  22.0622380  25.5953160  60.9258120  25.4337240  20.6495470
  60.5215120  24.7214490  20.1541370  61.0121240  25.0890480  21.5383510
  61.3939820  29.1204800  22.8134680  61.0968110  28.5150270  22.1342460
  62.3439640  29.1582110  22.7024040  59.6386740  22.2080450  24.4294510
  60.1901330  22.3175790  23.6547760  60.1530250  22.5818050  25.1449740
  69.4825430  32.6936670  26.4757780  69.0055990  33.5008860  26.2830390
  68.7987220  32.0415000  26.6283990  60.4858250  28.8586490  29.4642480
  59.5886780  29.0826460  29.7115880  60.5111120  28.9821430  28.5153880
  67.5263470  25.7079610  15.3783740  67.9656750  24.8702040  15.2321560
  68.2391890  26.3409010  15.4647880  59.3129470  25.7299810  28.0399850
  59.1737240  26.6022610  28.4087250  58.4310830  25.3872620  27.8947790
  65.6358850  30.6475680  19.3464980  66.0754760  31.3900010  18.9320370
  65.5745740  30.8902250  20.2703940  61.1109820  31.6721510  30.2485000
  61.0825250  32.0764460  29.3813430  60.9474790  30.7431870  30.0856600
  57.6262750  24.3282220  18.1502120  57.5060350  25.0544310  17.5383390
  57.3163640  23.5585130  17.6730030  55.2648120  27.4997360  23.9570760
  55.3428540  27.6346130  23.0126480  55.8789800  26.7913250  24.1498880
  56.5095750  29.1997550  20.3676940  56.1023830  29.3412140  19.5130540
  57.4008760  28.9157710  20.1648150  66.3274630  33.3489460  27.2743990
  66.8419300  33.2597470  28.0766420  65.4843710  33.6949160  27.5671900
  68.3029030  33.6344800  16.7027990  68.1430170  33.3447740  17.6009820
  68.1375740  32.8584930  16.1673220  60.7817410  33.4143330  18.4799610
  60.6059890  32.4978870  18.2667410  59.9273150  33.7730620  18.7197410
  68.0055160  31.1432360  15.2625990  67.3120320  31.1409650  14.6028270
  68.7478020  30.7191680  14.8320160  67.5705090  32.7695070  19.3374480
  68.0262040  31.9884450  19.6513100  67.9097610  33.4801890  19.8815660
  55.3207640  28.5411530  26.4965220  55.4838680  28.0716890  25.6784590
  55.7860090  28.0335090  27.1614060  60.0926410  17.6717290  21.5325790
  59.6494560  18.4526830  21.2010310  60.6511400  17.9947180  22.2396730
  64.3796220  20.5385810  27.1361110  63.9175590  20.7468830  27.9481050
  63.9774330  19.7245160  26.8331780  69.3800730  21.7594760  28.2657770
  68.5294320  21.4600510  28.5866840  69.2202520  22.0036770  27.3541590
  66.4750440  23.2596510  30.3656560  66.8003850  22.4260260  30.0258790
  67.2630770  23.7825030  30.5134890  63.2085230  17.2927990  16.4131620
  62.5839410  17.2887860  17.1384930  63.1215350  16.4258950  16.0167590
  62.1302310  18.2164620  23.3915390  62.4274640  19.1227450  23.3107410
  62.6787870  17.7283400  22.7774960  59.8840630  22.7950860  19.2607040
  59.6581550  22.5788030  20.1653660  59.1033160  23.2279320  18.9153010
  67.1138390  22.8014230  17.8597690  66.5147280  23.5250030  17.6761310
  67.6618000  22.7391010  17.0774140  62.3239840  23.6936440  29.9267310
  62.2283440  22.7531170  29.7767710  63.1671820  23.9151510  29.5315380
  65.7203260  21.4377770  19.8900970  66.1132830  21.7549970  19.0769660
  66.0820110  20.5589650  20.0045490  57.4550380  20.1050110  28.0801090
  57.0613770  20.9525320  28.2873870  56.7668780  19.4676480  28.2709730
  64.0295430  20.1885080  31.1497830  63.3393750  19.9957280  31.7843920
  64.7727730  20.4719720  31.6822130  54.7567430  18.0278570  22.1131170
  54.4680480  18.5981430  22.8256150  55.5013190  17.5483020  22.4762400
  54.9437660  21.9698690  13.3233890  54.8612330  22.9129450  13.4648880
  54.5920720  21.8273600  12.4446240  66.3058400  24.0283520  23.9851750
  65.5739520  24.5370330  24.3341850  65.9082740  23.2113500  23.6840530
  62.7435790  20.7037720  22.3904240  62.7471850  20.2627670  21.5408780
  63.6386910  21.0255050  22.4976060  58.5938170  20.5864210  21.3498450
  58.2538220  21.0639440  22.1065500  57.8315490  20.1329330  20.9899550
  62.8055940  21.7049800  15.3811000  62.9268760  21.6636280  16.3296820
  62.4204450  22.5673950  15.2257730  66.7684310  19.4817200  23.3974690
  66.7857050  19.9325850  24.2416540  66.5199890  18.5822840  23.6108130
  61.8177440  24.0150940  14.7794300  61.2494340  23.5669190  14.1530210
  62.5266440  24.3743720  14.2459450  56.8946620  27.9162960  28.6561030
  56.5101410  27.2756630  29.2543990  57.2058810  28.6199080  29.2255760
  63.0443760  24.7639500  24.1369650  63.4113890  24.2898070  24.8830990
  62.8548820  25.6381070  24.4777990  55.9084250  19.5083190  20.2663120
  55.6231170  19.1438860  21.1041740  55.8463110  18.7763650  19.6526260
  60.8343130  23.8048140  26.4553860  60.5300200  24.6840120  26.6804220
  61.7889590  23.8647930  26.4911300  59.3624920  28.0109130  17.0520710
  58.5887180  27.4706750  16.8919430  60.0919550  27.4915740  16.7138470
  65.5822840  18.4012450  16.9876490  64.7687450  17.9025620  16.9121800
  65.3884790  19.2410700  16.5712840  65.5031700  27.0783550  28.7316100
  65.4369010  26.1579220  28.4773690  64.8736840  27.1758990  29.4460740
  68.2971230  22.7732100  15.2838650  69.1850850  23.0849330  15.1089990
  68.2676320  21.9004350  14.8919230  59.4062320  27.6789510  20.6899520
  59.9240990  26.8757770  20.6356410  58.9546340  27.6168650  21.5316350
  64.2931820  28.9455790  15.9626820  64.6347520  29.6898020  15.4670140
  63.4644530  29.2586910  16.3251650  56.8906860  24.6450880  27.6025220
  56.5321800  25.3104730  28.1898560  56.5961420  23.8134430  27.9737840
  60.0919980  25.1035120  30.4864770  59.7920120  25.2492300  29.5892590
  60.8631220  24.5440410  30.3938160  65.4348430  29.9004120  28.4819900
  65.4492970  28.9685080  28.2638810  64.7273530  29.9863880  29.1209670
  67.1759230  28.2671630  21.3272330  67.5283050  27.6699760  20.6673700
  66.2921560  27.9415860  21.4980580  63.2622510  29.0269320  18.7342740
  63.9493640  29.5738530  19.1150330  62.4754930  29.5710050  18.7692350
  55.4014910  24.6442140  14.2259820  56.2709760  24.9266940  14.5095740
  54.9105230  25.4578010  14.1108630  62.5649720  26.0315350  18.3468100
  63.0212500  26.8420600  18.5728290  62.2137930  25.7138490  19.1786590
  64.8682330  31.5421690  25.5760400  65.5124550  31.7481070  26.2533820
  65.2311770  30.7810090  25.1231250  58.4661500  16.3753000  18.8190620
  58.3376130  16.3670900  19.7675540  57.6423520  16.7136090  18.4681630
  66.1414410  29.5454040  24.2937850  66.7836640  28.8447200  24.4070020
  66.6663760  30.3252480  24.1134740  67.9152030  30.3448940  27.4973910
  68.2508270  30.9315630  28.1751830  66.9952370  30.2141650  27.7271700
  55.7686160  33.8569520  14.7921450  56.1283800  34.4558860  14.1378720
  55.6278500  34.4029410  15.5656480  55.4655430  18.1344120  28.2797320
  54.7513950  18.3341040  28.8849930  55.8850470  17.3583690  28.6512120
  55.7528020  32.1224380  29.2663850  55.8619140  31.1819120  29.1259240
  55.1008580  32.3879130  28.6177580  63.7440610  30.3940270  30.6661970
  63.4237480  29.6749510  31.2107660  63.0698970  31.0695340  30.7398030
  61.7854780  31.2400720  15.6095120  61.7764880  31.9730410  14.9939630
  60.8653140  30.9932300  15.7022080  57.3861420  26.4615610  16.3541880
  56.7789370  27.2014510  16.3637180  57.8610770  26.5514970  15.5280080
  66.9594210  20.6266430  26.0298770  67.3275030  19.8061640  26.3578340
  66.0992410  20.6868320  26.4454420  64.7714380  31.3028960  14.2720310
  64.8726360  31.0992950  13.3422290  63.8716120  31.0487240  14.4768090
  62.2940270  21.8609320  18.2544210  61.5856420  22.3295660  18.6957820
  62.5784750  21.2031330  18.8889400  63.9196200  23.2806020  26.2536740
  64.4181450  23.7551840  26.9188590  64.0619150  22.3569540  26.4606770
  66.3255700  18.5859980  19.6940000  66.2023480  18.6046110  18.7449510
  67.2740260  18.6338920  19.8138400  63.4132490  33.8215280  18.9667980
  63.6673990  33.7836670  18.0447350  62.4644970  33.6948610  18.9596230
  60.4975290  20.1694400  15.6294920  61.3465820  20.6064550  15.5635110
  60.1306560  20.4814660  16.4566980  69.4185070  24.7407160  20.5426490
  68.4775210  24.7557390  20.7174180  69.7329140  23.9543120  20.9886790
  59.3966710  26.4226760  14.1030450  60.1629980  26.3108120  14.6655880
  59.4741400  25.7264730  13.4507220  58.0913470  23.8551830  14.7863340
  58.1717060  22.9079340  14.8980740  58.9833220  24.1858710  14.8924000
  58.8928180  34.0047220  21.8897880  59.6290660  33.4562680  22.1606450
  59.2769100  34.8703230  21.7503870  55.7773660  30.0720790  17.7639390
  54.8513440  30.3141930  17.7544800  56.2430090  30.8995050  17.6424140
  57.8986460  33.1893290  31.0783460  58.6999190  33.5105340  31.4918860
  57.3838280  32.8288870  31.8003370  62.0030490  33.1777530  13.7123450
  62.7959100  33.4666360  13.2605240  61.4834840  32.7469700  13.0335930
  66.7351090  29.2973160  31.0258870  66.1289250  29.3204760  30.2854620
  66.4305200  28.5656200  31.5626120  68.1651460  33.0253450  29.6368280
  69.1173210  32.9411470  29.5868520  68.0179680  33.6895160  30.3102070
  55.6184270  25.6766750  30.0219510  56.1223290  25.0974030  30.5935740
  54.8791690  25.9606980  30.5595880  62.5207890  28.3980940  13.5765800
  62.4158530  27.7833290  14.3027180  62.3532110  27.8746830  12.7928810
  62.6722210  27.0837740  29.5555030  61.9067880  27.6522740  29.4709700
  62.8538170  26.7913950  28.6623260  65.7610620  27.4600970  14.1807790
  65.2120720  27.9070270  14.8250530  66.3829880  26.9550220  14.7045460
  57.6507350  23.8196340  30.9169580  57.6912690  23.5210210  31.8254810
  58.5052850  24.2203950  30.7577100  61.4285740  26.4191890  16.0773090
  61.8502160  26.2531760  16.9204480  61.5536580  25.6092120  15.5828230
  59.5913160  22.3988440  28.8844070  59.0609620  21.9079390  28.2567410
  60.2601230  22.8272640  28.3502000  63.9413380  25.4429500  13.3250190
  64.4619040  24.7278520  12.9591340  64.5881780  26.0815370  13.6250700
  68.4891220  26.8657900  28.6485260  68.9032240  27.0202980  29.4975680
  67.5542220  26.9913120  28.8111040  68.9613390  24.2054060  30.6524410
  69.5434160  23.4506380  30.5644890  69.1375160  24.7361500  29.8755890
  60.0785460  19.3650810  28.9641360  59.9842330  18.7471560  28.2392230
  59.4982850  20.0917100  28.7371270  62.8446900  17.9224050  25.9968750
  62.3964200  17.9448310  25.1514300  62.2112100  17.5243070  26.5939050
  63.2506450  26.8178380  26.6181190  63.6694560  27.6611110  26.4457430
  62.3315080  26.9550420  26.3887970  65.5870350  24.5494560  28.0019030
  65.7066560  23.9535700  28.7413870  66.4464350  24.5864250  27.5820330
  67.9258250  25.1031750  26.5781540  67.3993470  25.6274370  25.9746680
  68.2689590  25.7359140  27.2091270  60.3244640  22.4925120  13.0231250
  60.1233700  21.6292480  13.3844590  60.1536690  22.4058480  12.0852850
  61.1013870  33.1231390  27.7338920  60.5634960  33.8477450  27.4147620
  61.3547830  32.6461730  26.9436260  62.3539120  21.0915910  29.2594850
  62.9438810  20.7831760  29.9472670  61.5359360  20.6195660  29.4154750
  67.1732550  20.7081720  29.4927870  66.4848070  20.0463260  29.4277860
  67.8938570  20.2619990  29.9376330  67.8032950  17.3033350  15.5518130
  68.0835240  16.4601250  15.9077550  67.0298680  17.5356460  16.0656880
  59.1227440  19.5925740  13.0109130  59.4253340  19.5993170  12.1028280
  59.8622030  19.2423600  13.5076790  63.9576080  34.3582600  27.9925570
  63.8834780  35.2617740  28.2997940  63.0554920  34.0394500  27.9647640
  62.3412370  18.5360360  13.9965330  61.9934370  17.8584350  13.4167780
  62.5425140  18.0749870  14.8108720  64.5061410  33.5241110  15.6151930
  65.4012200  33.8626080  15.6370690  64.5379040  32.8020520  14.9876210
  58.1457570  28.8968160  13.8438930  58.5832440  29.4397830  14.4996510
  58.6305300  28.0715110  13.8535270  55.3603370  31.6857190  21.2959190
  55.6906380  30.8178250  21.0637830  55.7894370  31.8915710  22.1264150
  59.9565290  30.0166200  18.9561160  59.6560830  29.8931170  19.8565070
  59.8502780  29.1574790  18.5476890  55.8493580  32.5527780  24.0340820
  55.4124570  32.7328580  24.8664970  56.4171260  33.3102400  23.8922540
  55.6818010  25.0648010  20.3929700  55.0266850  24.7959650  19.7489400
  56.5195960  24.9552490  19.9431680  68.6308450  19.8589300  14.6148190
  69.0493330  19.6720280  13.7744850  68.3244510  19.0068350  14.9251120
  56.7193940  25.4500580  24.9333040  57.0866980  25.3627980  25.8129060
  56.1504760  24.6867130  24.8339900  56.2709940  22.3609670  28.8391460
  55.3765990  22.3276430  29.1785170  56.8107490  22.5596460  29.6042710
  54.8956090  22.2746940  16.3355030  53.9920170  22.5377140  16.1606690
  55.3796710  22.5458110  15.5554990  57.4383300  21.3312480  14.2449410
  58.1475000  20.9095700  13.7596690  56.7223240  21.3987710  13.6132760
  57.0857460  17.3851810  13.2852060  57.8085590  17.9260750  13.6033280
  57.3581980  17.1115230  12.4093600  56.7749650  16.6358000  23.1874680
  57.4225840  16.0855380  22.7469840  57.1951490  16.8901150  24.0090490
  56.5281650  16.7913670  25.9300000  56.1796470  17.2477490  26.6958180
  56.1969350  15.8970800  26.0122430  58.1346020  29.9633270  30.0953190
  58.0915650  29.5926180  30.9767650  58.2657030  30.9010840  30.2355010
  61.8352050  31.5192860  25.6962910  61.5943410  31.7867420  24.8093430
  62.7754690  31.6898590  25.7513770  64.0406470  17.9825550  29.4519420
  63.9795360  18.5747380  30.2014830  64.9806850  17.8751510  29.3069680
  66.6781030  17.6395610  29.0911710  67.2921440  17.9574900  28.4292790
  67.2230590  17.1544200  29.7107570  57.2002290  16.3189870  29.2050770
  57.7485280  16.1377920  28.4416880  57.2657600  15.5283980  29.7407080
  57.9734050  32.9095520  27.2150970  57.3794370  32.7780220  27.9541010
  57.9657890  32.0733660  26.7493070  67.4189070  16.2027750  25.4181000
  66.5448910  16.5362860  25.2153930  67.3099820  15.7300930  26.2432870
  68.3261050  18.4098620  26.8022720  67.9974410  17.5950380  26.4224450
  69.2743350  18.3668430  26.6788410  57.6046280  30.2753900  26.1659010
  56.8780340  29.6559190  26.0984960  57.6655430  30.6694510  25.2957090
  61.2091380  32.4898900  22.9508420  61.7256400  31.8786260  22.4256680
  61.8588760  32.9927680  23.4419430  63.9486880  33.3807390  23.7777400
  64.2364690  33.1261690  22.9010410  64.4610100  32.8284750  24.3682970
  65.1663890  17.1197590  24.3573910  64.3835680  17.5943090  24.6370670
  64.8726820  16.2152420  24.2487090  55.8876280  33.5928290  19.3755770
  55.7198320  32.9598970  20.0737660  55.0210790  33.7987690  19.0249960
  56.5104300  17.4245070  16.8787630  57.2683660  17.5373950  16.3051660
  56.0481470  18.2614270  16.8331060  63.0518110  19.5384340  19.8689940
  62.2392620  19.1641230  19.5285820  63.5559750  18.7829420  20.1711130
  67.5543090  16.2026790  21.1073010  68.1572460  16.7747000  21.5821530
  66.8136080  16.7666230  20.8846910  57.4938980  32.2861520  16.8205910
  56.9686600  32.6669550  16.1167870  57.4183560  32.9112290  17.5415620
  58.8829450  17.9509120  15.4189600  59.4122210  17.1638920  15.2897550
  59.5157770  18.6300310  15.6525130  61.0767290  17.6884260  18.4734990
  60.4470030  16.9871570  18.6405120  60.5372430  18.4488390  18.2568150
  64.0159240  34.3023490  31.1445600  64.9426550  34.0667760  31.1881560
  64.0009670  35.1295490  30.6631630  61.2022850  16.9668240  30.9087480
  60.9207120  17.4701840  30.1448300  61.5842550  16.1689990  30.5429610
  60.0931950  34.2343900  15.6955160  60.8250770  33.9503180  15.1479050
  60.3525620  33.9957180  16.5854540  59.2546740  30.3508630  15.7001490
  58.6255620  30.8193730  16.2487320  59.3694570  29.5057850  16.1347680
  67.8038310  16.3821820  31.4867950  67.6903760  16.7016430  32.3819470
  68.6208050  16.7834330  31.1905230  64.8414500  26.1793310   3.7311960
  64.0656600  25.6993750   4.0210530  65.4927430  25.4998960   3.5568120
  58.8580330  26.4913120   4.6087720  58.0265210  26.2361830   5.0084230
  59.4661310  26.5623890   5.3445640  68.8621930  30.5853500   2.5111090
  68.4003460  29.8140740   2.8398260  69.6747480  30.6119570   3.0163540
  58.8381590  30.5253210   4.8045740  59.1409630  29.6350950   4.6255960
  59.5825180  31.0823430   4.5767990  55.2305290  24.0520660   4.2769810
  55.8021400  23.2842860   4.2773450  55.2306830  24.3509420   3.3676420
  64.2823490  28.8550500   3.7382120  64.2131770  27.9140440   3.5771250
  65.0443350  28.9451910   4.3104690  56.4730160  19.4605020   6.0638740
  56.2933000  18.5630770   6.3441500  56.0710240  20.0076890   6.7385690
  65.3128660  21.6620880   3.9651050  65.6893480  20.7892760   3.8524720
  65.2148170  21.9979580   3.0741490  57.0916830  21.9565520   4.6721080
  57.7726940  22.2203890   5.2908480  56.7764880  21.1166390   5.0059090
  61.2841400  23.0032880   3.7593670  61.7919620  23.5013850   4.3998690
  61.8154640  22.2268080   3.5833030  59.5677500  17.6431440   8.0257090
  59.5695940  18.1603830   7.2202990  58.7381810  17.1661620   8.0027020
  60.8180350  27.2826620   6.2030590  60.4849730  27.9095540   6.8451660
  60.9947030  27.8088500   5.4232260  69.3314260  21.0971700   3.6706930
  68.6269830  21.3856590   4.2510040  69.6926420  21.9071810   3.3106490
  59.2492830  19.3541400   6.0327540  59.5909640  20.1983450   5.7381410
  58.3108640  19.5025140   6.1492880  60.0299450  29.2507420   8.0179770
  60.6473450  29.9258500   7.7364220  59.1692570  29.6595400   7.9267270
  68.4835780  32.5590960   4.6479590  68.4962940  32.1553250   3.7801850
  67.9311000  33.3338250   4.5441020  67.8821220  27.4620800   5.9762200
  68.2990010  27.2480910   5.1415660  68.6061040  27.7193590   6.5470820
  68.7925330  22.6477340   7.0133310  68.3796510  23.4731050   7.2673300
  68.0601280  22.0622380   6.8209670  61.3939820  29.1204800   4.0391190
  61.0968110  28.5150270   3.3598970  62.3439640  29.1582110   3.9280550
  59.6386740  22.2080450   5.6551020  60.1901330  22.3175790   4.8804270
  60.1530250  22.5818050   6.3706250  69.4825430  32.6936670   7.7014290
  69.0055990  33.5008860   7.5086900  68.7987220  32.0415000   7.8540500
  60.4858250  28.8586490  10.6898990  59.5886780  29.0826460  10.9372390
  60.5111120  28.9821430   9.7410390  59.3129470  25.7299810   9.2656360
  59.1737240  26.6022610   9.6343760  58.4310830  25.3872620   9.1204300
  61.1109820  31.6721510  11.4741510  61.0825250  32.0764460  10.6069940
  60.9474790  30.7431870  11.3113110  55.2648120  27.4997360   5.1827270
  55.3428540  27.6346130   4.2382990  55.8789800  26.7913250   5.3755390
  66.3274630  33.3489460   8.5000500  66.8419300  33.2597470   9.3022930
  65.4843710  33.6949160   8.7928410  55.3207640  28.5411530   7.7221730
  55.4838680  28.0716890   6.9041100  55.7860090  28.0335090   8.3870570
  60.0926410  17.6717290   2.7582300  59.6494560  18.4526830   2.4266820
  60.6511400  17.9947180   3.4653240  64.3796220  20.5385810   8.3617620
  63.9175590  20.7468830   9.1737560  63.9774330  19.7245160   8.0588290
  69.3800730  21.7594760   9.4914280  68.5294320  21.4600510   9.8123350
  69.2202520  22.0036770   8.5798100  66.4750440  23.2596510  11.5913070
  66.8003850  22.4260260  11.2515300  67.2630770  23.7825030  11.7391400
  62.1302310  18.2164620   4.6171900  62.4274640  19.1227450   4.5363920
  62.6787870  17.7283400   4.0031470  62.3239840  23.6936440  11.1523820
  62.2283440  22.7531170  11.0024220  63.1671820  23.9151510  10.7571890
  57.4550380  20.1050110   9.3057600  57.0613770  20.9525320   9.5130380
  56.7668780  19.4676480   9.4966240  64.0295430  20.1885080  12.3754340
  63.3393750  19.9957280  13.0100430  64.7727730  20.4719720  12.9078640
  54.7567430  18.0278570   3.3387680  54.4680480  18.5981430   4.0512660
  55.5013190  17.5483020   3.7018910  66.3058400  24.0283520   5.2108260
  65.5739520  24.5370330   5.5598360  65.9082740  23.2113500   4.9097040
  62.7435790  20.7037720   3.6160750  62.7471850  20.2627670   2.7665290
  63.6386910  21.0255050   3.7232570  58.5938170  20.5864210   2.5754960
  58.2538220  21.0639440   3.3322010  57.8315490  20.1329330   2.2156060
  66.7684310  19.4817200   4.6231200  66.7857050  19.9325850   5.4673050
  66.5199890  18.5822840   4.8364640  56.8946620  27.9162960   9.8817540
  56.5101410  27.2756630  10.4800500  57.2058810  28.6199080  10.4512270
  63.0443760  24.7639500   5.3626160  63.4113890  24.2898070   6.1087500
  62.8548820  25.6381070   5.7034500  60.8343130  23.8048140   7.6810370
  60.5300200  24.6840120   7.9060730  61.7889590  23.8647930   7.7167810
  65.5031700  27.0783550   9.9572610  65.4369010  26.1579220   9.7030200
  64.8736840  27.1758990  10.6717250  59.4062320  27.6789510   1.9156030
  59.9240990  26.8757770   1.8612920  58.9546340  27.6168650   2.7572860
  56.8906860  24.6450880   8.8281730  56.5321800  25.3104730   9.4155070
  56.5961420  23.8134430   9.1994350  60.0919980  25.1035120  11.7121280
  59.7920120  25.2492300  10.8149100  60.8631220  24.5440410  11.6194670
  65.4348430  29.9004120   9.7076410  65.4492970  28.9685080   9.4895320
  64.7273530  29.9863880  10.3466180  67.1759230  28.2671630   2.5528840
  67.5283050  27.6699760   1.8930210  66.2921560  27.9415860   2.7237090
  64.8682330  31.5421690   6.8016910  65.5124550  31.7481070   7.4790330
  65.2311770  30.7810090   6.3487760  66.1414410  29.5454040   5.5194360
  66.7836640  28.8447200   5.6326530  66.6663760  30.3252480   5.3391250
  67.9152030  30.3448940   8.7230420  68.2508270  30.9315630   9.4008340
  66.9952370  30.2141650   8.9528210  55.4655430  18.1344120   9.5053830
  54.7513950  18.3341040  10.1106440  55.8850470  17.3583690   9.8768630
  55.7528020  32.1224380  10.4920360  55.8619140  31.1819120  10.3515750
  55.1008580  32.3879130   9.8434090  63.7440610  30.3940270  11.8918480
  63.4237480  29.6749510  12.4364170  63.0698970  31.0695340  11.9654540
  66.9594210  20.6266430   7.2555280  67.3275030  19.8061640   7.5834850
  66.0992410  20.6868320   7.6710930  63.9196200  23.2806020   7.4793250
  64.4181450  23.7551840   8.1445100  64.0619150  22.3569540   7.6863280
  69.4185070  24.7407160   1.7683000  68.4775210  24.7557390   1.9430690
  69.7329140  23.9543120   2.2143300  58.8928180  34.0047220   3.1154390
  59.6290660  33.4562680   3.3862960  59.2769100  34.8703230   2.9760380
  57.8986460  33.1893290  12.3039970  58.6999190  33.5105340  12.7175370
  57.3838280  32.8288870  13.0259880  66.7351090  29.2973160  12.2515380
  66.1289250  29.3204760  11.5111130  66.4305200  28.5656200  12.7882630
  68.1651460  33.0253450  10.8624790  69.1173210  32.9411470  10.8125030
  68.0179680  33.6895160  11.5358580  55.6184270  25.6766750  11.2476020
  56.1223290  25.0974030  11.8192250  54.8791690  25.9606980  11.7852390
  62.6722210  27.0837740  10.7811540  61.9067880  27.6522740  10.6966210
  62.8538170  26.7913950   9.8879770  57.6507350  23.8196340  12.1426090
  57.6912690  23.5210210  13.0511320  58.5052850  24.2203950  11.9833610
  59.5913160  22.3988440  10.1100580  59.0609620  21.9079390   9.4823920
  60.2601230  22.8272640   9.5758510  68.4891220  26.8657900   9.8741770
  68.9032240  27.0202980  10.7232190  67.5542220  26.9913120  10.0367550
  68.9613390  24.2054060  11.8780920  69.5434160  23.4506380  11.7901400
  69.1375160  24.7361500  11.1012400  60.0785460  19.3650810  10.1897870
  59.9842330  18.7471560   9.4648740  59.4982850  20.0917100   9.9627780
  62.8446900  17.9224050   7.2225260  62.3964200  17.9448310   6.3770810
  62.2112100  17.5243070   7.8195560  63.2506450  26.8178380   7.8437700
  63.6694560  27.6611110   7.6713940  62.3315080  26.9550420   7.6144480
  65.5870350  24.5494560   9.2275540  65.7066560  23.9535700   9.9670380
  66.4464350  24.5864250   8.8076840  67.9258250  25.1031750   7.8038050
  67.3993470  25.6274370   7.2003190  68.2689590  25.7359140   8.4347780
  61.1013870  33.1231390   8.9595430  60.5634960  33.8477450   8.6404130
  61.3547830  32.6461730   8.1692770  62.3539120  21.0915910  10.4851360
  62.9438810  20.7831760  11.1729180  61.5359360  20.6195660  10.6411260
  67.1732550  20.7081720  10.7184380  66.4848070  20.0463260  10.6534370
  67.8938570  20.2619990  11.1632840  63.9576080  34.3582600   9.2182080
  63.8834780  35.2617740   9.5254450  63.0554920  34.0394500   9.1904150
  55.3603370  31.6857190   2.5215700  55.6906380  30.8178250   2.2894340
  55.7894370  31.8915710   3.3520660  55.8493580  32.5527780   5.2597330
  55.4124570  32.7328580   6.0921480  56.4171260  33.3102400   5.1179050
  56.7193940  25.4500580   6.1589550  57.0866980  25.3627980   7.0385570
  56.1504760  24.6867130   6.0596410  56.2709940  22.3609670  10.0647970
  55.3765990  22.3276430  10.4041680  56.8107490  22.5596460  10.8299220
  56.7749650  16.6358000   4.4131190  57.4225840  16.0855380   3.9726350
  57.1951490  16.8901150   5.2347000  56.5281650  16.7913670   7.1556510
  56.1796470  17.2477490   7.9214690  56.1969350  15.8970800   7.2378940
  58.1346020  29.9633270  11.3209700  58.0915650  29.5926180  12.2024160
  58.2657030  30.9010840  11.4611520  61.8352050  31.5192860   6.9219420
  61.5943410  31.7867420   6.0349940  62.7754690  31.6898590   6.9770280
  64.0406470  17.9825550  10.6775930  63.9795360  18.5747380  11.4271340
  64.9806850  17.8751510  10.5326190  66.6781030  17.6395610  10.3168220
  67.2921440  17.9574900   9.6549300  67.2230590  17.1544200  10.9364080
  57.2002290  16.3189870  10.4307280  57.7485280  16.1377920   9.6673390
  57.2657600  15.5283980  10.9663590  57.9734050  32.9095520   8.4407480
  57.3794370  32.7780220   9.1797520  57.9657890  32.0733660   7.9749580
  67.4189070  16.2027750   6.6437510  66.5448910  16.5362860   6.4410440
  67.3099820  15.7300930   7.4689380  68.3261050  18.4098620   8.0279230
  67.9974410  17.5950380   7.6480960  69.2743350  18.3668430   7.9044920
  57.6046280  30.2753900   7.3915520  56.8780340  29.6559190   7.3241470
  57.6655430  30.6694510   6.5213600  61.2091380  32.4898900   4.1764930
  61.7256400  31.8786260   3.6513190  61.8588760  32.9927680   4.6675940
  63.9486880  33.3807390   5.0033910  64.2364690  33.1261690   4.1266920
  64.4610100  32.8284750   5.5939480  65.1663890  17.1197590   5.5830420
  64.3835680  17.5943090   5.8627180  64.8726820  16.2152420   5.4743600
  67.5543090  16.2026790   2.3329520  68.1572460  16.7747000   2.8078040
  66.8136080  16.7666230   2.1103420  64.0159240  34.3023490  12.3702110
  64.9426550  34.0667760  12.4138070  64.0009670  35.1295490  11.8888140
  61.2022850  16.9668240  12.1343990  60.9207120  17.4701840  11.3704810
  61.5842550  16.1689990  11.7686120  67.8038310  16.3821820  12.7124460
  67.6903760  16.7016430  13.6075980  68.6208050  16.7834330  12.4161740
  66.7096460   5.6270800  58.1733160  66.6290510   4.7125410  57.9024870
  66.2960880   6.1237870  57.4672870  64.8414500   7.4049820  60.0542430
  64.0656600   6.9250260  60.3441000  65.4927430   6.7255470  59.8798590
  68.8621930  11.8110010  58.8341560  68.4003460  11.0397250  59.1628730
  69.6747480  11.8376080  59.3394010  58.8381590  11.7509720  61.1276210
  59.1409630  10.8607460  60.9486430  59.5825180  12.3079940  60.8998460
  57.2672280   2.6771520  54.7160580  56.3788980   3.0187490  54.6140460
  57.5513470   2.4771840  53.8241410  55.2305290   5.2777170  60.6000280
  55.8021400   4.5099370  60.6003920  55.2306830   5.5765930  59.6906890
  65.0885240  14.0968020  58.4545550  64.4696680  14.5525520  57.8839990
  65.9437020  14.2519480  58.0535250  64.2823490  10.0807010  60.0612590
  64.2131770   9.1396950  59.9001720  65.0443350  10.1708420  60.6335160
  65.3128660   2.8877390  60.2881520  65.6893480   2.0149270  60.1755190
  65.2148170   3.2236090  59.3971960  61.2841400   4.2289390  60.0824140
  61.7919620   4.7270360  60.7229160  61.8154640   3.4524590  59.9063500
  65.9548590   8.9807260  55.8477460  65.3365860   9.4456710  55.2840180
  66.4671840   9.6734740  56.2646970  69.3314260   2.3228210  59.9937400
  68.6269830   2.6113100  60.5740510  69.6926420   3.1328320  59.6336960
  55.3231790   9.6663790  53.2217090  54.9459770  10.1550890  52.4901990
  55.5804860  10.3389070  53.8523620  68.4835780  13.7847470  60.9710060
  68.4962940  13.3809760  60.1032320  67.9311000  14.5594760  60.8671490
  69.7781200  10.5063690  56.0600230  69.6677530   9.5638020  56.1849650
  69.7749450  10.8679330  56.9462990  65.3201480   6.1329010  55.4162720
  64.3930760   6.0666390  55.6451190  65.4726300   7.0709140  55.3017960
  65.3070560   2.4046010  52.4129880  64.3674230   2.5659970  52.4982340
  65.6253820   3.1231690  51.8665870  69.3498770   7.6949310  55.9197970
  68.7311190   7.3568860  55.2724270  69.3323220   7.0509070  56.6277160
  60.9258120   6.6593750  58.1982450  60.5215120   5.9471000  57.7028350
  61.0121240   6.3146990  59.0870490  61.3939820  10.3461310  60.3621660
  61.0968110   9.7406780  59.6829440  62.3439640  10.3838620  60.2511020
  67.5263470   6.9336120  52.9270720  67.9656750   6.0958550  52.7808540
  68.2391890   7.5665520  53.0134860  65.6358850  11.8732190  56.8951960
  66.0754760  12.6156520  56.4807350  65.5745740  12.1158760  57.8190920
  57.6262750   5.5538730  55.6989100  57.5060350   6.2800820  55.0870370
  57.3163640   4.7841640  55.2217010  56.5095750  10.4254060  57.9163920
  56.1023830  10.5668650  57.0617520  57.4008760  10.1414220  57.7135130
  68.3029030  14.8601310  54.2514970  68.1430170  14.5704250  55.1496800
  68.1375740  14.0841440  53.7160200  60.7817410  14.6399840  56.0286590
  60.6059890  13.7235380  55.8154390  59.9273150  14.9987130  56.2684390
  68.0055160  12.3688870  52.8112970  67.3120320  12.3666160  52.1515250
  68.7478020  11.9448190  52.3807140  67.5705090  13.9951580  56.8861460
  68.0262040  13.2140960  57.2000080  67.9097610  14.7058400  57.4302640
  59.8840630   4.0207370  56.8094020  59.6581550   3.8044540  57.7140640
  59.1033160   4.4535830  56.4639990  67.1138390   4.0270740  55.4084670
  66.5147280   4.7506540  55.2248290  67.6618000   3.9647520  54.6261120
  65.7203260   2.6634280  57.4387950  66.1132830   2.9806480  56.6256640
  66.0820110   1.7846160  57.5532470  54.9437660   3.1955200  50.8720870
  54.8612330   4.1385960  51.0135860  54.5920720   3.0530110  49.9933220
  62.8055940   2.9306310  52.9297980  62.9268760   2.8892790  53.8783800
  62.4204450   3.7930460  52.7744710  61.8177440   5.2407450  52.3281280
  61.2494340   4.7925700  51.7017190  62.5266440   5.6000230  51.7946430
  59.3624920   9.2365640  54.6007690  58.5887180   8.6963260  54.4406410
  60.0919550   8.7172250  54.2625450  68.2971230   3.9988610  52.8325630
  69.1850850   4.3105840  52.6576970  68.2676320   3.1260860  52.4406210
  59.4062320   8.9046020  58.2386500  59.9240990   8.1014280  58.1843390
  58.9546340   8.8425160  59.0803330  64.2931820  10.1712300  53.5113800
  64.6347520  10.9154530  53.0157120  63.4644530  10.4843420  53.8738630
  67.1759230   9.4928140  58.8759310  67.5283050   8.8956270  58.2160680
  66.2921560   9.1672370  59.0467560  63.2622510  10.2525830  56.2829720
  63.9493640  10.7995040  56.6637310  62.4754930  10.7966560  56.3179330
  55.4014910   5.8698650  51.7746800  56.2709760   6.1523450  52.0582720
  54.9105230   6.6834520  51.6595610  62.5649720   7.2571860  55.8955080
  63.0212500   8.0677110  56.1215270  62.2137930   6.9395000  56.7273570
  55.7686160  15.0826030  52.3408430  56.1283800  15.6815370  51.6865700
  55.6278500  15.6285920  53.1143460  61.7854780  12.4657230  53.1582100
  61.7764880  13.1986920  52.5426610  60.8653140  12.2188810  53.2509060
  57.3861420   7.6872120  53.9028860  56.7789370   8.4271020  53.9124160
  57.8610770   7.7771480  53.0767060  64.7714380  12.5285470  51.8207290
  64.8726360  12.3249460  50.8909270  63.8716120  12.2743750  52.0255070
  62.2940270   3.0865830  55.8031190  61.5856420   3.5552170  56.2444800
  62.5784750   2.4287840  56.4376380  63.4132490  15.0471790  56.5154960
  63.6673990  15.0093180  55.5934330  62.4644970  14.9205120  56.5083210
  69.4185070   5.9663670  58.0913470  68.4775210   5.9813900  58.2661160
  69.7329140   5.1799630  58.5373770  59.3966710   7.6483270  51.6517430
  60.1629980   7.5364630  52.2142860  59.4741400   6.9521240  50.9994200
  58.0913470   5.0808340  52.3350320  58.1717060   4.1335850  52.4467720
  58.9833220   5.4115220  52.4410980  58.8928180  15.2303730  59.4384860
  59.6290660  14.6819190  59.7093430  59.2769100  16.0959740  59.2990850
  55.7773660  11.2977300  55.3126370  54.8513440  11.5398440  55.3031780
  56.2430090  12.1251560  55.1911120  62.0030490  14.4034040  51.2610430
  62.7959100  14.6922870  50.8092220  61.4834840  13.9726210  50.5822910
  62.5207890   9.6237450  51.1252780  62.4158530   9.0089800  51.8514160
  62.3532110   9.1003340  50.3415790  65.7610620   8.6857480  51.7294770
  65.2120720   9.1326780  52.3737510  66.3829880   8.1806730  52.2532440
  61.4285740   7.6448400  53.6260070  61.8502160   7.4788270  54.4691460
  61.5536580   6.8348630  53.1315210  63.9413380   6.6686010  50.8737170
  64.4619040   5.9535030  50.5078320  64.5881780   7.3071880  51.1737680
  60.3244640   3.7181630  50.5718230  60.1233700   2.8548990  50.9331570
  60.1536690   3.6314990  49.6339830  64.5061410  14.7497620  53.1638910
  65.4012200  15.0882590  53.1857670  64.5379040  14.0277030  52.5363190
  58.1457570  10.1224670  51.3925910  58.5832440  10.6654340  52.0483490
  58.6305300   9.2971620  51.4022250  55.3603370  12.9113700  58.8446170
  55.6906380  12.0434760  58.6124810  55.7894370  13.1172220  59.6751130
  59.9565290  11.2422710  56.5048140  59.6560830  11.1187680  57.4052050
  59.8502780  10.3831300  56.0963870  55.6818010   6.2904520  57.9416680
  55.0266850   6.0216160  57.2976380  56.5195960   6.1809000  57.4918660
  54.8956090   3.5003450  53.8842010  53.9920170   3.7633650  53.7093670
  55.3796710   3.7714620  53.1041970  57.4383300   2.5568990  51.7936390
  58.1475000   2.1352210  51.3083670  56.7223240   2.6244220  51.1619740
  61.2091380  13.7155410  60.4995400  61.7256400  13.1042770  59.9743660
  61.8588760  14.2184190  60.9906410  55.8876280  14.8184800  56.9242750
  55.7198320  14.1855480  57.6224640  55.0210790  15.0244200  56.5736940
  57.4938980  13.5118030  54.3692890  56.9686600  13.8926060  53.6654850
  57.4183560  14.1368800  55.0902600  60.0931950  15.4600410  53.2442140
  60.8250770  15.1759690  52.6966030  60.3525620  15.2213690  54.1341520
  59.2546740  11.5765140  53.2488470  58.6255620  12.0450240  53.7974300
  59.3694570  10.7314360  53.6834660  66.7096460   5.6270800  39.3989670
  66.6290510   4.7125410  39.1281380  66.2960880   6.1237870  38.6929380
  64.8414500   7.4049820  41.2798940  64.0656600   6.9250260  41.5697510
  65.4927430   6.7255470  41.1055100  58.8580330   7.7169630  42.1574700
  58.0265210   7.4618340  42.5571210  59.4661310   7.7880400  42.8932620
  68.8621930  11.8110010  40.0598070  68.4003460  11.0397250  40.3885240
  69.6747480  11.8376080  40.5650520  58.8381590  11.7509720  42.3532720
  59.1409630  10.8607460  42.1742940  59.5825180  12.3079940  42.1254970
  57.2672280   2.6771520  35.9417090  56.3788980   3.0187490  35.8396970
  57.5513470   2.4771840  35.0497920  55.2305290   5.2777170  41.8256790
  55.8021400   4.5099370  41.8260430  55.2306830   5.5765930  40.9163400
  65.0885240  14.0968020  39.6802060  64.4696680  14.5525520  39.1096500
  65.9437020  14.2519480  39.2791760  64.2823490  10.0807010  41.2869100
  64.2131770   9.1396950  41.1258230  65.0443350  10.1708420  41.8591670
  65.3128660   2.8877390  41.5138030  65.6893480   2.0149270  41.4011700
  65.2148170   3.2236090  40.6228470  57.0916830   3.1822030  42.2208060
  57.7726940   3.4460400  42.8395460  56.7764880   2.3422900  42.5546070
  61.2841400   4.2289390  41.3080650  61.7919620   4.7270360  41.9485670
  61.8154640   3.4524590  41.1320010  65.9548590   8.9807260  37.0733970
  65.3365860   9.4456710  36.5096690  66.4671840   9.6734740  37.4903480
  60.8180350   8.5083130  43.7517570  60.4849730   9.1352050  44.3938640
  60.9947030   9.0345010  42.9719240  69.3314260   2.3228210  41.2193910
  68.6269830   2.6113100  41.7997020  69.6926420   3.1328320  40.8593470
  60.0299450  10.4763930  45.5666750  60.6473450  11.1515010  45.2851200
  59.1692570  10.8851910  45.4754250  55.3231790   9.6663790  34.4473600
  54.9459770  10.1550890  33.7158500  55.5804860  10.3389070  35.0780130
  68.4835780  13.7847470  42.1966570  68.4962940  13.3809760  41.3288830
  67.9311000  14.5594760  42.0928000  69.7781200  10.5063690  37.2856740
  69.6677530   9.5638020  37.4106160  69.7749450  10.8679330  38.1719500
  67.8821220   8.6877310  43.5249180  68.2990010   8.4737420  42.6902640
  68.6061040   8.9450100  44.0957800  65.3201480   6.1329010  36.6419230
  64.3930760   6.0666390  36.8707700  65.4726300   7.0709140  36.5274470
  65.3070560   2.4046010  33.6386390  64.3674230   2.5659970  33.7238850
  65.6253820   3.1231690  33.0922380  69.3498770   7.6949310  37.1454480
  68.7311190   7.3568860  36.4980780  69.3323220   7.0509070  37.8533670
  68.7925330   3.8733850  44.5620290  68.3796510   4.6987560  44.8160280
  68.0601280   3.2878890  44.3696650  60.9258120   6.6593750  39.4238960
  60.5215120   5.9471000  38.9284860  61.0121240   6.3146990  40.3127000
  61.3939820  10.3461310  41.5878170  61.0968110   9.7406780  40.9085950
  62.3439640  10.3838620  41.4767530  59.6386740   3.4336960  43.2038000
  60.1901330   3.5432300  42.4291250  60.1530250   3.8074560  43.9193230
  69.4825430  13.9193180  45.2501270  69.0055990  14.7265370  45.0573880
  68.7987220  13.2671510  45.4027480  60.4858250  10.0843000  48.2385970
  59.5886780  10.3082970  48.4859370  60.5111120  10.2077940  47.2897370
  67.5263470   6.9336120  34.1527230  67.9656750   6.0958550  34.0065050
  68.2391890   7.5665520  34.2391370  59.3129470   6.9556320  46.8143340
  59.1737240   7.8279120  47.1830740  58.4310830   6.6129130  46.6691280
  65.6358850  11.8732190  38.1208470  66.0754760  12.6156520  37.7063860
  65.5745740  12.1158760  39.0447430  61.1109820  12.8978020  49.0228490
  61.0825250  13.3020970  48.1556920  60.9474790  11.9688380  48.8600090
  57.6262750   5.5538730  36.9245610  57.5060350   6.2800820  36.3126880
  57.3163640   4.7841640  36.4473520  55.2648120   8.7253870  42.7314250
  55.3428540   8.8602640  41.7869970  55.8789800   8.0169760  42.9242370
  56.5095750  10.4254060  39.1420430  56.1023830  10.5668650  38.2874030
  57.4008760  10.1414220  38.9391640  66.3274630  14.5745970  46.0487480
  66.8419300  14.4853980  46.8509910  65.4843710  14.9205670  46.3415390
  68.3029030  14.8601310  35.4771480  68.1430170  14.5704250  36.3753310
  68.1375740  14.0841440  34.9416710  60.7817410  14.6399840  37.2543100
  60.6059890  13.7235380  37.0410900  59.9273150  14.9987130  37.4940900
  68.0055160  12.3688870  34.0369480  67.3120320  12.3666160  33.3771760
  68.7478020  11.9448190  33.6063650  67.5705090  13.9951580  38.1117970
  68.0262040  13.2140960  38.4256590  67.9097610  14.7058400  38.6559150
  55.3207640   9.7668040  45.2708710  55.4838680   9.2973400  44.4528080
  55.7860090   9.2591600  45.9357550  69.3800730   2.9851270  47.0401260
  68.5294320   2.6857020  47.3610330  69.2202520   3.2293280  46.1285080
  66.4750440   4.4853020  49.1400050  66.8003850   3.6516770  48.8002280
  67.2630770   5.0081540  49.2878380  59.8840630   4.0207370  38.0350530
  59.6581550   3.8044540  38.9397150  59.1033160   4.4535830  37.6896500
  67.1138390   4.0270740  36.6341180  66.5147280   4.7506540  36.4504800
  67.6618000   3.9647520  35.8517630  62.3239840   4.9192950  48.7010800
  62.2283440   3.9787680  48.5511200  63.1671820   5.1408020  48.3058870
  65.7203260   2.6634280  38.6644460  66.1132830   2.9806480  37.8513150
  66.0820110   1.7846160  38.7788980  54.9437660   3.1955200  32.0977380
  54.8612330   4.1385960  32.2392370  54.5920720   3.0530110  31.2189730
  66.3058400   5.2540030  42.7595240  65.5739520   5.7626840  43.1085340
  65.9082740   4.4370010  42.4584020  62.8055940   2.9306310  34.1554490
  62.9268760   2.8892790  35.1040310  62.4204450   3.7930460  34.0001220
  61.8177440   5.2407450  33.5537790  61.2494340   4.7925700  32.9273700
  62.5266440   5.6000230  33.0202940  56.8946620   9.1419470  47.4304520
  56.5101410   8.5013140  48.0287480  57.2058810   9.8455590  47.9999250
  63.0443760   5.9896010  42.9113140  63.4113890   5.5154580  43.6574480
  62.8548820   6.8637580  43.2521480  60.8343130   5.0304650  45.2297350
  60.5300200   5.9096630  45.4547710  61.7889590   5.0904440  45.2654790
  59.3624920   9.2365640  35.8264200  58.5887180   8.6963260  35.6662920
  60.0919550   8.7172250  35.4881960  65.5031700   8.3040060  47.5059590
  65.4369010   7.3835730  47.2517180  64.8736840   8.4015500  48.2204230
  68.2971230   3.9988610  34.0582140  69.1850850   4.3105840  33.8833480
  68.2676320   3.1260860  33.6662720  59.4062320   8.9046020  39.4643010
  59.9240990   8.1014280  39.4099900  58.9546340   8.8425160  40.3059840
  64.2931820  10.1712300  34.7370310  64.6347520  10.9154530  34.2413630
  63.4644530  10.4843420  35.0995140  56.8906860   5.8707390  46.3768710
  56.5321800   6.5361240  46.9642050  56.5961420   5.0390940  46.7481330
  60.0919980   6.3291630  49.2608260  59.7920120   6.4748810  48.3636080
  60.8631220   5.7696920  49.1681650  65.4348430  11.1260630  47.2563390
  65.4492970  10.1941590  47.0382300  64.7273530  11.2120390  47.8953160
  67.1759230   9.4928140  40.1015820  67.5283050   8.8956270  39.4417190
  66.2921560   9.1672370  40.2724070  63.2622510  10.2525830  37.5086230
  63.9493640  10.7995040  37.8893820  62.4754930  10.7966560  37.5435840
  55.4014910   5.8698650  33.0003310  56.2709760   6.1523450  33.2839230
  54.9105230   6.6834520  32.8852120  62.5649720   7.2571860  37.1211590
  63.0212500   8.0677110  37.3471780  62.2137930   6.9395000  37.9530080
  64.8682330  12.7678200  44.3503890  65.5124550  12.9737580  45.0277310
  65.2311770  12.0066600  43.8974740  66.1414410  10.7710550  43.0681340
  66.7836640  10.0703710  43.1813510  66.6663760  11.5508990  42.8878230
  67.9152030  11.5705450  46.2717400  68.2508270  12.1572140  46.9495320
  66.9952370  11.4398160  46.5015190  55.7686160  15.0826030  33.5664940
  56.1283800  15.6815370  32.9122210  55.6278500  15.6285920  34.3399970
  55.7528020  13.3480890  48.0407340  55.8619140  12.4075630  47.9002730
  55.1008580  13.6135640  47.3921070  63.7440610  11.6196780  49.4405460
  63.4237480  10.9006020  49.9851150  63.0698970  12.2951850  49.5141520
  61.7854780  12.4657230  34.3838610  61.7764880  13.1986920  33.7683120
  60.8653140  12.2188810  34.4765570  57.3861420   7.6872120  35.1285370
  56.7789370   8.4271020  35.1380670  57.8610770   7.7771480  34.3023570
  64.7714380  12.5285470  33.0463800  64.8726360  12.3249460  32.1165780
  63.8716120  12.2743750  33.2511580  62.2940270   3.0865830  37.0287700
  61.5856420   3.5552170  37.4701310  62.5784750   2.4287840  37.6632890
  63.9196200   4.5062530  45.0280230  64.4181450   4.9808350  45.6932080
  64.0619150   3.5826050  45.2350260  63.4132490  15.0471790  37.7411470
  63.6673990  15.0093180  36.8190840  62.4644970  14.9205120  37.7339720
  69.4185070   5.9663670  39.3169980  68.4775210   5.9813900  39.4917670
  69.7329140   5.1799630  39.7630280  59.3966710   7.6483270  32.8773940
  60.1629980   7.5364630  33.4399370  59.4741400   6.9521240  32.2250710
  58.0913470   5.0808340  33.5606830  58.1717060   4.1335850  33.6724230
  58.9833220   5.4115220  33.6667490  58.8928180  15.2303730  40.6641370
  59.6290660  14.6819190  40.9349940  59.2769100  16.0959740  40.5247360
  55.7773660  11.2977300  36.5382880  54.8513440  11.5398440  36.5288290
  56.2430090  12.1251560  36.4167630  57.8986460  14.4149800  49.8526950
  58.6999190  14.7361850  50.2662350  57.3838280  14.0545380  50.5746860
  62.0030490  14.4034040  32.4866940  62.7959100  14.6922870  32.0348730
  61.4834840  13.9726210  31.8079420  66.7351090  10.5229670  49.8002360
  66.1289250  10.5461270  49.0598110  66.4305200   9.7912710  50.3369610
  68.1651460  14.2509960  48.4111770  69.1173210  14.1667980  48.3612010
  68.0179680  14.9151670  49.0845560  55.6184270   6.9023260  48.7963000
  56.1223290   6.3230540  49.3679230  54.8791690   7.1863490  49.3339370
  62.5207890   9.6237450  32.3509290  62.4158530   9.0089800  33.0770670
  62.3532110   9.1003340  31.5672300  62.6722210   8.3094250  48.3298520
  61.9067880   8.8779250  48.2453190  62.8538170   8.0170460  47.4366750
  65.7610620   8.6857480  32.9551280  65.2120720   9.1326780  33.5994020
  66.3829880   8.1806730  33.4788950  57.6507350   5.0452850  49.6913070
  57.6912690   4.7466720  50.5998300  58.5052850   5.4460460  49.5320590
  61.4285740   7.6448400  34.8516580  61.8502160   7.4788270  35.6947970
  61.5536580   6.8348630  34.3571720  59.5913160   3.6244950  47.6587560
  59.0609620   3.1335900  47.0310900  60.2601230   4.0529150  47.1245490
  63.9413380   6.6686010  32.0993680  64.4619040   5.9535030  31.7334830
  64.5881780   7.3071880  32.3994190  68.4891220   8.0914410  47.4228750
  68.9032240   8.2459490  48.2719170  67.5542220   8.2169630  47.5854530
  68.9613390   5.4310570  49.4267900  69.5434160   4.6762890  49.3388380
  69.1375160   5.9618010  48.6499380  63.2506450   8.0434890  45.3924680
  63.6694560   8.8867620  45.2200920  62.3315080   8.1806930  45.1631460
  65.5870350   5.7751070  46.7762520  65.7066560   5.1792210  47.5157360
  66.4464350   5.8120760  46.3563820  67.9258250   6.3288260  45.3525030
  67.3993470   6.8530880  44.7490170  68.2689590   6.9615650  45.9834760
  60.3244640   3.7181630  31.7974740  60.1233700   2.8548990  32.1588080
  60.1536690   3.6314990  30.8596340  61.1013870  14.3487900  46.5082410
  60.5634960  15.0733960  46.1891110  61.3547830  13.8718240  45.7179750
  62.3539120   2.3172420  48.0338340  62.9438810   2.0088270  48.7216160
  61.5359360   1.8452170  48.1898240  63.9576080  15.5839110  46.7669060
  63.8834780  16.4874250  47.0741430  63.0554920  15.2651010  46.7391130
  64.5061410  14.7497620  34.3895420  65.4012200  15.0882590  34.4114180
  64.5379040  14.0277030  33.7619700  58.1457570  10.1224670  32.6182420
  58.5832440  10.6654340  33.2740000  58.6305300   9.2971620  32.6278760
  55.3603370  12.9113700  40.0702680  55.6906380  12.0434760  39.8381320
  55.7894370  13.1172220  40.9007640  59.9565290  11.2422710  37.7304650
  59.6560830  11.1187680  38.6308560  59.8502780  10.3831300  37.3220380
  55.8493580  13.7784290  42.8084310  55.4124570  13.9585090  43.6408460
  56.4171260  14.5358910  42.6666030  55.6818010   6.2904520  39.1673190
  55.0266850   6.0216160  38.5232890  56.5195960   6.1809000  38.7175170
  56.7193940   6.6757090  43.7076530  57.0866980   6.5884490  44.5872550
  56.1504760   5.9123640  43.6083390  56.2709940   3.5866180  47.6134950
  55.3765990   3.5532940  47.9528660  56.8107490   3.7852970  48.3786200
  54.8956090   3.5003450  35.1098520  53.9920170   3.7633650  34.9350180
  55.3796710   3.7714620  34.3298480  57.4383300   2.5568990  33.0192900
  58.1475000   2.1352210  32.5340180  56.7223240   2.6244220  32.3876250
  58.1346020  11.1889780  48.8696680  58.0915650  10.8182690  49.7511140
  58.2657030  12.1267350  49.0098500  61.8352050  12.7449370  44.4706400
  61.5943410  13.0123930  43.5836920  62.7754690  12.9155100  44.5257260
  57.9734050  14.1352030  45.9894460  57.3794370  14.0036730  46.7284500
  57.9657890  13.2990170  45.5236560  57.6046280  11.5010410  44.9402500
  56.8780340  10.8815700  44.8728450  57.6655430  11.8951020  44.0700580
  61.2091380  13.7155410  41.7251910  61.7256400  13.1042770  41.2000170
  61.8588760  14.2184190  42.2162920  63.9486880  14.6063900  42.5520890
  64.2364690  14.3518200  41.6753900  64.4610100  14.0541260  43.1426460
  55.8876280  14.8184800  38.1499260  55.7198320  14.1855480  38.8481150
  55.0210790  15.0244200  37.7993450  57.4938980  13.5118030  35.5949400
  56.9686600  13.8926060  34.8911360  57.4183560  14.1368800  36.3159110
  64.0159240  15.5280000  49.9189090  64.9426550  15.2924270  49.9625050
  64.0009670  16.3552000  49.4375120  60.0931950  15.4600410  34.4698650
  60.8250770  15.1759690  33.9222540  60.3525620  15.2213690  35.3598030
  59.2546740  11.5765140  34.4744980  58.6255620  12.0450240  35.0230810
  59.3694570  10.7314360  34.9091170  66.7096460   5.6270800  20.6246180
  66.6290510   4.7125410  20.3537890  66.2960880   6.1237870  19.9185890
  64.8414500   7.4049820  22.5055450  64.0656600   6.9250260  22.7954020
  65.4927430   6.7255470  22.3311610  58.8580330   7.7169630  23.3831210
  58.0265210   7.4618340  23.7827720  59.4661310   7.7880400  24.1189130
  68.8621930  11.8110010  21.2854580  68.4003460  11.0397250  21.6141750
  69.6747480  11.8376080  21.7907030  58.8381590  11.7509720  23.5789230
  59.1409630  10.8607460  23.3999450  59.5825180  12.3079940  23.3511480
  57.2672280   2.6771520  17.1673600  56.3788980   3.0187490  17.0653480
  57.5513470   2.4771840  16.2754430  55.2305290   5.2777170  23.0513300
  55.8021400   4.5099370  23.0516940  55.2306830   5.5765930  22.1419910
  65.0885240  14.0968020  20.9058570  64.4696680  14.5525520  20.3353010
  65.9437020  14.2519480  20.5048270  64.2823490  10.0807010  22.5125610
  64.2131770   9.1396950  22.3514740  65.0443350  10.1708420  23.0848180
  65.3128660   2.8877390  22.7394540  65.6893480   2.0149270  22.6268210
  65.2148170   3.2236090  21.8484980  57.0916830   3.1822030  23.4464570
  57.7726940   3.4460400  24.0651970  56.7764880   2.3422900  23.7802580
  61.2841400   4.2289390  22.5337160  61.7919620   4.7270360  23.1742180
  61.8154640   3.4524590  22.3576520  65.9548590   8.9807260  18.2990480
  65.3365860   9.4456710  17.7353200  66.4671840   9.6734740  18.7159990
  60.8180350   8.5083130  24.9774080  60.4849730   9.1352050  25.6195150
  60.9947030   9.0345010  24.1975750  69.3314260   2.3228210  22.4450420
  68.6269830   2.6113100  23.0253530  69.6926420   3.1328320  22.0849980
  60.0299450  10.4763930  26.7923260  60.6473450  11.1515010  26.5107710
  59.1692570  10.8851910  26.7010760  55.3231790   9.6663790  15.6730110
  54.9459770  10.1550890  14.9415010  55.5804860  10.3389070  16.3036640
  68.4835780  13.7847470  23.4223080  68.4962940  13.3809760  22.5545340
  67.9311000  14.5594760  23.3184510  69.7781200  10.5063690  18.5113250
  69.6677530   9.5638020  18.6362670  69.7749450  10.8679330  19.3976010
  67.8821220   8.6877310  24.7505690  68.2990010   8.4737420  23.9159150
  68.6061040   8.9450100  25.3214310  65.3201480   6.1329010  17.8675740
  64.3930760   6.0666390  18.0964210  65.4726300   7.0709140  17.7530980
  65.3070560   2.4046010  14.8642900  64.3674230   2.5659970  14.9495360
  65.6253820   3.1231690  14.3178890  69.3498770   7.6949310  18.3710990
  68.7311190   7.3568860  17.7237290  69.3323220   7.0509070  19.0790180
  68.7925330   3.8733850  25.7876800  68.3796510   4.6987560  26.0416790
  68.0601280   3.2878890  25.5953160  60.9258120   6.6593750  20.6495470
  60.5215120   5.9471000  20.1541370  61.0121240   6.3146990  21.5383510
  61.3939820  10.3461310  22.8134680  61.0968110   9.7406780  22.1342460
  62.3439640  10.3838620  22.7024040  59.6386740   3.4336960  24.4294510
  60.1901330   3.5432300  23.6547760  60.1530250   3.8074560  25.1449740
  69.4825430  13.9193180  26.4757780  69.0055990  14.7265370  26.2830390
  68.7987220  13.2671510  26.6283990  60.4858250  10.0843000  29.4642480
  59.5886780  10.3082970  29.7115880  60.5111120  10.2077940  28.5153880
  67.5263470   6.9336120  15.3783740  67.9656750   6.0958550  15.2321560
  68.2391890   7.5665520  15.4647880  59.3129470   6.9556320  28.0399850
  59.1737240   7.8279120  28.4087250  58.4310830   6.6129130  27.8947790
  65.6358850  11.8732190  19.3464980  66.0754760  12.6156520  18.9320370
  65.5745740  12.1158760  20.2703940  61.1109820  12.8978020  30.2485000
  61.0825250  13.3020970  29.3813430  60.9474790  11.9688380  30.0856600
  57.6262750   5.5538730  18.1502120  57.5060350   6.2800820  17.5383390
  57.3163640   4.7841640  17.6730030  55.2648120   8.7253870  23.9570760
  55.3428540   8.8602640  23.0126480  55.8789800   8.0169760  24.1498880
  56.5095750  10.4254060  20.3676940  56.1023830  10.5668650  19.5130540
  57.4008760  10.1414220  20.1648150  66.3274630  14.5745970  27.2743990
  66.8419300  14.4853980  28.0766420  65.4843710  14.9205670  27.5671900
  68.3029030  14.8601310  16.7027990  68.1430170  14.5704250  17.6009820
  68.1375740  14.0841440  16.1673220  60.7817410  14.6399840  18.4799610
  60.6059890  13.7235380  18.2667410  59.9273150  14.9987130  18.7197410
  68.0055160  12.3688870  15.2625990  67.3120320  12.3666160  14.6028270
  68.7478020  11.9448190  14.8320160  67.5705090  13.9951580  19.3374480
  68.0262040  13.2140960  19.6513100  67.9097610  14.7058400  19.8815660
  55.3207640   9.7668040  26.4965220  55.4838680   9.2973400  25.6784590
  55.7860090   9.2591600  27.1614060  69.3800730   2.9851270  28.2657770
  68.5294320   2.6857020  28.5866840  69.2202520   3.2293280  27.3541590
  66.4750440   4.4853020  30.3656560  66.8003850   3.6516770  30.0258790
  67.2630770   5.0081540  30.5134890  59.8840630   4.0207370  19.2607040
  59.6581550   3.8044540  20.1653660  59.1033160   4.4535830  18.9153010
  67.1138390   4.0270740  17.8597690  66.5147280   4.7506540  17.6761310
  67.6618000   3.9647520  17.0774140  62.3239840   4.9192950  29.9267310
  62.2283440   3.9787680  29.7767710  63.1671820   5.1408020  29.5315380
  65.7203260   2.6634280  19.8900970  66.1132830   2.9806480  19.0769660
  66.0820110   1.7846160  20.0045490  54.9437660   3.1955200  13.3233890
  54.8612330   4.1385960  13.4648880  54.5920720   3.0530110  12.4446240
  66.3058400   5.2540030  23.9851750  65.5739520   5.7626840  24.3341850
  65.9082740   4.4370010  23.6840530  62.8055940   2.9306310  15.3811000
  62.9268760   2.8892790  16.3296820  62.4204450   3.7930460  15.2257730
  61.8177440   5.2407450  14.7794300  61.2494340   4.7925700  14.1530210
  62.5266440   5.6000230  14.2459450  56.8946620   9.1419470  28.6561030
  56.5101410   8.5013140  29.2543990  57.2058810   9.8455590  29.2255760
  63.0443760   5.9896010  24.1369650  63.4113890   5.5154580  24.8830990
  62.8548820   6.8637580  24.4777990  60.8343130   5.0304650  26.4553860
  60.5300200   5.9096630  26.6804220  61.7889590   5.0904440  26.4911300
  59.3624920   9.2365640  17.0520710  58.5887180   8.6963260  16.8919430
  60.0919550   8.7172250  16.7138470  65.5031700   8.3040060  28.7316100
  65.4369010   7.3835730  28.4773690  64.8736840   8.4015500  29.4460740
  68.2971230   3.9988610  15.2838650  69.1850850   4.3105840  15.1089990
  68.2676320   3.1260860  14.8919230  59.4062320   8.9046020  20.6899520
  59.9240990   8.1014280  20.6356410  58.9546340   8.8425160  21.5316350
  64.2931820  10.1712300  15.9626820  64.6347520  10.9154530  15.4670140
  63.4644530  10.4843420  16.3251650  56.8906860   5.8707390  27.6025220
  56.5321800   6.5361240  28.1898560  56.5961420   5.0390940  27.9737840
  60.0919980   6.3291630  30.4864770  59.7920120   6.4748810  29.5892590
  60.8631220   5.7696920  30.3938160  65.4348430  11.1260630  28.4819900
  65.4492970  10.1941590  28.2638810  64.7273530  11.2120390  29.1209670
  67.1759230   9.4928140  21.3272330  67.5283050   8.8956270  20.6673700
  66.2921560   9.1672370  21.4980580  63.2622510  10.2525830  18.7342740
  63.9493640  10.7995040  19.1150330  62.4754930  10.7966560  18.7692350
  55.4014910   5.8698650  14.2259820  56.2709760   6.1523450  14.5095740
  54.9105230   6.6834520  14.1108630  62.5649720   7.2571860  18.3468100
  63.0212500   8.0677110  18.5728290  62.2137930   6.9395000  19.1786590
  64.8682330  12.7678200  25.5760400  65.5124550  12.9737580  26.2533820
  65.2311770  12.0066600  25.1231250  66.1414410  10.7710550  24.2937850
  66.7836640  10.0703710  24.4070020  66.6663760  11.5508990  24.1134740
  67.9152030  11.5705450  27.4973910  68.2508270  12.1572140  28.1751830
  66.9952370  11.4398160  27.7271700  55.7686160  15.0826030  14.7921450
  56.1283800  15.6815370  14.1378720  55.6278500  15.6285920  15.5656480
  55.7528020  13.3480890  29.2663850  55.8619140  12.4075630  29.1259240
  55.1008580  13.6135640  28.6177580  63.7440610  11.6196780  30.6661970
  63.4237480  10.9006020  31.2107660  63.0698970  12.2951850  30.7398030
  61.7854780  12.4657230  15.6095120  61.7764880  13.1986920  14.9939630
  60.8653140  12.2188810  15.7022080  57.3861420   7.6872120  16.3541880
  56.7789370   8.4271020  16.3637180  57.8610770   7.7771480  15.5280080
  64.7714380  12.5285470  14.2720310  64.8726360  12.3249460  13.3422290
  63.8716120  12.2743750  14.4768090  62.2940270   3.0865830  18.2544210
  61.5856420   3.5552170  18.6957820  62.5784750   2.4287840  18.8889400
  63.9196200   4.5062530  26.2536740  64.4181450   4.9808350  26.9188590
  64.0619150   3.5826050  26.4606770  63.4132490  15.0471790  18.9667980
  63.6673990  15.0093180  18.0447350  62.4644970  14.9205120  18.9596230
  69.4185070   5.9663670  20.5426490  68.4775210   5.9813900  20.7174180
  69.7329140   5.1799630  20.9886790  59.3966710   7.6483270  14.1030450
  60.1629980   7.5364630  14.6655880  59.4741400   6.9521240  13.4507220
  58.0913470   5.0808340  14.7863340  58.1717060   4.1335850  14.8980740
  58.9833220   5.4115220  14.8924000  58.8928180  15.2303730  21.8897880
  59.6290660  14.6819190  22.1606450  59.2769100  16.0959740  21.7503870
  55.7773660  11.2977300  17.7639390  54.8513440  11.5398440  17.7544800
  56.2430090  12.1251560  17.6424140  57.8986460  14.4149800  31.0783460
  58.6999190  14.7361850  31.4918860  57.3838280  14.0545380  31.8003370
  62.0030490  14.4034040  13.7123450  62.7959100  14.6922870  13.2605240
  61.4834840  13.9726210  13.0335930  66.7351090  10.5229670  31.0258870
  66.1289250  10.5461270  30.2854620  66.4305200   9.7912710  31.5626120
  68.1651460  14.2509960  29.6368280  69.1173210  14.1667980  29.5868520
  68.0179680  14.9151670  30.3102070  55.6184270   6.9023260  30.0219510
  56.1223290   6.3230540  30.5935740  54.8791690   7.1863490  30.5595880
  62.5207890   9.6237450  13.5765800  62.4158530   9.0089800  14.3027180
  62.3532110   9.1003340  12.7928810  62.6722210   8.3094250  29.5555030
  61.9067880   8.8779250  29.4709700  62.8538170   8.0170460  28.6623260
  65.7610620   8.6857480  14.1807790  65.2120720   9.1326780  14.8250530
  66.3829880   8.1806730  14.7045460  57.6507350   5.0452850  30.9169580
  57.6912690   4.7466720  31.8254810  58.5052850   5.4460460  30.7577100
  61.4285740   7.6448400  16.0773090  61.8502160   7.4788270  16.9204480
  61.5536580   6.8348630  15.5828230  59.5913160   3.6244950  28.8844070
  59.0609620   3.1335900  28.2567410  60.2601230   4.0529150  28.3502000
  63.9413380   6.6686010  13.3250190  64.4619040   5.9535030  12.9591340
  64.5881780   7.3071880  13.6250700  68.4891220   8.0914410  28.6485260
  68.9032240   8.2459490  29.4975680  67.5542220   8.2169630  28.8111040
  68.9613390   5.4310570  30.6524410  69.5434160   4.6762890  30.5644890
  69.1375160   5.9618010  29.8755890  63.2506450   8.0434890  26.6181190
  63.6694560   8.8867620  26.4457430  62.3315080   8.1806930  26.3887970
  65.5870350   5.7751070  28.0019030  65.7066560   5.1792210  28.7413870
  66.4464350   5.8120760  27.5820330  67.9258250   6.3288260  26.5781540
  67.3993470   6.8530880  25.9746680  68.2689590   6.9615650  27.2091270
  60.3244640   3.7181630  13.0231250  60.1233700   2.8548990  13.3844590
  60.1536690   3.6314990  12.0852850  61.1013870  14.3487900  27.7338920
  60.5634960  15.0733960  27.4147620  61.3547830  13.8718240  26.9436260
  62.3539120   2.3172420  29.2594850  62.9438810   2.0088270  29.9472670
  61.5359360   1.8452170  29.4154750  63.9576080  15.5839110  27.9925570
  63.8834780  16.4874250  28.2997940  63.0554920  15.2651010  27.9647640
  64.5061410  14.7497620  15.6151930  65.4012200  15.0882590  15.6370690
  64.5379040  14.0277030  14.9876210  58.1457570  10.1224670  13.8438930
  58.5832440  10.6654340  14.4996510  58.6305300   9.2971620  13.8535270
  55.3603370  12.9113700  21.2959190  55.6906380  12.0434760  21.0637830
  55.7894370  13.1172220  22.1264150  59.9565290  11.2422710  18.9561160
  59.6560830  11.1187680  19.8565070  59.8502780  10.3831300  18.5476890
  55.8493580  13.7784290  24.0340820  55.4124570  13.9585090  24.8664970
  56.4171260  14.5358910  23.8922540  55.6818010   6.2904520  20.3929700
  55.0266850   6.0216160  19.7489400  56.5195960   6.1809000  19.9431680
  56.7193940   6.6757090  24.9333040  57.0866980   6.5884490  25.8129060
  56.1504760   5.9123640  24.8339900  56.2709940   3.5866180  28.8391460
  55.3765990   3.5532940  29.1785170  56.8107490   3.7852970  29.6042710
  54.8956090   3.5003450  16.3355030  53.9920170   3.7633650  16.1606690
  55.3796710   3.7714620  15.5554990  57.4383300   2.5568990  14.2449410
  58.1475000   2.1352210  13.7596690  56.7223240   2.6244220  13.6132760
  58.1346020  11.1889780  30.0953190  58.0915650  10.8182690  30.9767650
  58.2657030  12.1267350  30.2355010  61.8352050  12.7449370  25.6962910
  61.5943410  13.0123930  24.8093430  62.7754690  12.9155100  25.7513770
  57.9734050  14.1352030  27.2150970  57.3794370  14.0036730  27.9541010
  57.9657890  13.2990170  26.7493070  57.6046280  11.5010410  26.1659010
  56.8780340  10.8815700  26.0984960  57.6655430  11.8951020  25.2957090
  61.2091380  13.7155410  22.9508420  61.7256400  13.1042770  22.4256680
  61.8588760  14.2184190  23.4419430  63.9486880  14.6063900  23.7777400
  64.2364690  14.3518200  22.9010410  64.4610100  14.0541260  24.3682970
  55.8876280  14.8184800  19.3755770  55.7198320  14.1855480  20.0737660
  55.0210790  15.0244200  19.0249960  57.4938980  13.5118030  16.8205910
  56.9686600  13.8926060  16.1167870  57.4183560  14.1368800  17.5415620
  64.0159240  15.5280000  31.1445600  64.9426550  15.2924270  31.1881560
  64.0009670  16.3552000  30.6631630  60.0931950  15.4600410  15.6955160
  60.8250770  15.1759690  15.1479050  60.3525620  15.2213690  16.5854540
  59.2546740  11.5765140  15.7001490  58.6255620  12.0450240  16.2487320
  59.3694570  10.7314360  16.1347680  64.8414500   7.4049820   3.7311960
  64.0656600   6.9250260   4.0210530  65.4927430   6.7255470   3.5568120
  58.8580330   7.7169630   4.6087720  58.0265210   7.4618340   5.0084230
  59.4661310   7.7880400   5.3445640  68.8621930  11.8110010   2.5111090
  68.4003460  11.0397250   2.8398260  69.6747480  11.8376080   3.0163540
  58.8381590  11.7509720   4.8045740  59.1409630  10.8607460   4.6255960
  59.5825180  12.3079940   4.5767990  55.2305290   5.2777170   4.2769810
  55.8021400   4.5099370   4.2773450  55.2306830   5.5765930   3.3676420
  64.2823490  10.0807010   3.7382120  64.2131770   9.1396950   3.5771250
  65.0443350  10.1708420   4.3104690  65.3128660   2.8877390   3.9651050
  65.6893480   2.0149270   3.8524720  65.2148170   3.2236090   3.0741490
  57.0916830   3.1822030   4.6721080  57.7726940   3.4460400   5.2908480
  56.7764880   2.3422900   5.0059090  61.2841400   4.2289390   3.7593670
  61.7919620   4.7270360   4.3998690  61.8154640   3.4524590   3.5833030
  60.8180350   8.5083130   6.2030590  60.4849730   9.1352050   6.8451660
  60.9947030   9.0345010   5.4232260  69.3314260   2.3228210   3.6706930
  68.6269830   2.6113100   4.2510040  69.6926420   3.1328320   3.3106490
  60.0299450  10.4763930   8.0179770  60.6473450  11.1515010   7.7364220
  59.1692570  10.8851910   7.9267270  68.4835780  13.7847470   4.6479590
  68.4962940  13.3809760   3.7801850  67.9311000  14.5594760   4.5441020
  67.8821220   8.6877310   5.9762200  68.2990010   8.4737420   5.1415660
  68.6061040   8.9450100   6.5470820  68.7925330   3.8733850   7.0133310
  68.3796510   4.6987560   7.2673300  68.0601280   3.2878890   6.8209670
  61.3939820  10.3461310   4.0391190  61.0968110   9.7406780   3.3598970
  62.3439640  10.3838620   3.9280550  59.6386740   3.4336960   5.6551020
  60.1901330   3.5432300   4.8804270  60.1530250   3.8074560   6.3706250
  69.4825430  13.9193180   7.7014290  69.0055990  14.7265370   7.5086900
  68.7987220  13.2671510   7.8540500  60.4858250  10.0843000  10.6898990
  59.5886780  10.3082970  10.9372390  60.5111120  10.2077940   9.7410390
  59.3129470   6.9556320   9.2656360  59.1737240   7.8279120   9.6343760
  58.4310830   6.6129130   9.1204300  61.1109820  12.8978020  11.4741510
  61.0825250  13.3020970  10.6069940  60.9474790  11.9688380  11.3113110
  55.2648120   8.7253870   5.1827270  55.3428540   8.8602640   4.2382990
  55.8789800   8.0169760   5.3755390  66.3274630  14.5745970   8.5000500
  66.8419300  14.4853980   9.3022930  65.4843710  14.9205670   8.7928410
  55.3207640   9.7668040   7.7221730  55.4838680   9.2973400   6.9041100
  55.7860090   9.2591600   8.3870570  69.3800730   2.9851270   9.4914280
  68.5294320   2.6857020   9.8123350  69.2202520   3.2293280   8.5798100
  66.4750440   4.4853020  11.5913070  66.8003850   3.6516770  11.2515300
  67.2630770   5.0081540  11.7391400  62.3239840   4.9192950  11.1523820
  62.2283440   3.9787680  11.0024220  63.1671820   5.1408020  10.7571890
  66.3058400   5.2540030   5.2108260  65.5739520   5.7626840   5.5598360
  65.9082740   4.4370010   4.9097040  56.8946620   9.1419470   9.8817540
  56.5101410   8.5013140  10.4800500  57.2058810   9.8455590  10.4512270
  63.0443760   5.9896010   5.3626160  63.4113890   5.5154580   6.1087500
  62.8548820   6.8637580   5.7034500  60.8343130   5.0304650   7.6810370
  60.5300200   5.9096630   7.9060730  61.7889590   5.0904440   7.7167810
  65.5031700   8.3040060   9.9572610  65.4369010   7.3835730   9.7030200
  64.8736840   8.4015500  10.6717250  59.4062320   8.9046020   1.9156030
  59.9240990   8.1014280   1.8612920  58.9546340   8.8425160   2.7572860
  56.8906860   5.8707390   8.8281730  56.5321800   6.5361240   9.4155070
  56.5961420   5.0390940   9.1994350  60.0919980   6.3291630  11.7121280
  59.7920120   6.4748810  10.8149100  60.8631220   5.7696920  11.6194670
  65.4348430  11.1260630   9.7076410  65.4492970  10.1941590   9.4895320
  64.7273530  11.2120390  10.3466180  67.1759230   9.4928140   2.5528840
  67.5283050   8.8956270   1.8930210  66.2921560   9.1672370   2.7237090
  64.8682330  12.7678200   6.8016910  65.5124550  12.9737580   7.4790330
  65.2311770  12.0066600   6.3487760  66.1414410  10.7710550   5.5194360
  66.7836640  10.0703710   5.6326530  66.6663760  11.5508990   5.3391250
  67.9152030  11.5705450   8.7230420  68.2508270  12.1572140   9.4008340
  66.9952370  11.4398160   8.9528210  55.7528020  13.3480890  10.4920360
  55.8619140  12.4075630  10.3515750  55.1008580  13.6135640   9.8434090
  63.7440610  11.6196780  11.8918480  63.4237480  10.9006020  12.4364170
  63.0698970  12.2951850  11.9654540  63.9196200   4.5062530   7.4793250
  64.4181450   4.9808350   8.1445100  64.0619150   3.5826050   7.6863280
  69.4185070   5.9663670   1.7683000  68.4775210   5.9813900   1.9430690
  69.7329140   5.1799630   2.2143300  58.8928180  15.2303730   3.1154390
  59.6290660  14.6819190   3.3862960  59.2769100  16.0959740   2.9760380
  57.8986460  14.4149800  12.3039970  58.6999190  14.7361850  12.7175370
  57.3838280  14.0545380  13.0259880  66.7351090  10.5229670  12.2515380
  66.1289250  10.5461270  11.5111130  66.4305200   9.7912710  12.7882630
  68.1651460  14.2509960  10.8624790  69.1173210  14.1667980  10.8125030
  68.0179680  14.9151670  11.5358580  55.6184270   6.9023260  11.2476020
  56.1223290   6.3230540  11.8192250  54.8791690   7.1863490  11.7852390
  62.6722210   8.3094250  10.7811540  61.9067880   8.8779250  10.6966210
  62.8538170   8.0170460   9.8879770  57.6507350   5.0452850  12.1426090
  57.6912690   4.7466720  13.0511320  58.5052850   5.4460460  11.9833610
  59.5913160   3.6244950  10.1100580  59.0609620   3.1335900   9.4823920
  60.2601230   4.0529150   9.5758510  68.4891220   8.0914410   9.8741770
  68.9032240   8.2459490  10.7232190  67.5542220   8.2169630  10.0367550
  68.9613390   5.4310570  11.8780920  69.5434160   4.6762890  11.7901400
  69.1375160   5.9618010  11.1012400  63.2506450   8.0434890   7.8437700
  63.6694560   8.8867620   7.6713940  62.3315080   8.1806930   7.6144480
  65.5870350   5.7751070   9.2275540  65.7066560   5.1792210   9.9670380
  66.4464350   5.8120760   8.8076840  67.9258250   6.3288260   7.8038050
  67.3993470   6.8530880   7.2003190  68.2689590   6.9615650   8.4347780
  61.1013870  14.3487900   8.9595430  60.5634960  15.0733960   8.6404130
  61.3547830  13.8718240   8.1692770  62.3539120   2.3172420  10.4851360
  62.9438810   2.0088270  11.1729180  61.5359360   1.8452170  10.6411260
  63.9576080  15.5839110   9.2182080  63.8834780  16.4874250   9.5254450
  63.0554920  15.2651010   9.1904150  55.3603370  12.9113700   2.5215700
  55.6906380  12.0434760   2.2894340  55.7894370  13.1172220   3.3520660
  55.8493580  13.7784290   5.2597330  55.4124570  13.9585090   6.0921480
  56.4171260  14.5358910   5.1179050  56.7193940   6.6757090   6.1589550
  57.0866980   6.5884490   7.0385570  56.1504760   5.9123640   6.0596410
  56.2709940   3.5866180  10.0647970  55.3765990   3.5532940  10.4041680
  56.8107490   3.7852970  10.8299220  58.1346020  11.1889780  11.3209700
  58.0915650  10.8182690  12.2024160  58.2657030  12.1267350  11.4611520
  61.8352050  12.7449370   6.9219420  61.5943410  13.0123930   6.0349940
  62.7754690  12.9155100   6.9770280  57.9734050  14.1352030   8.4407480
  57.3794370  14.0036730   9.1797520  57.9657890  13.2990170   7.9749580
  57.6046280  11.5010410   7.3915520  56.8780340  10.8815700   7.3241470
  57.6655430  11.8951020   6.5213600  61.2091380  13.7155410   4.1764930
  61.7256400  13.1042770   3.6513190  61.8588760  14.2184190   4.6675940
  63.9486880  14.6063900   5.0033910  64.2364690  14.3518200   4.1266920
  64.4610100  14.0541260   5.5939480  64.0159240  15.5280000  12.3702110
  64.9426550  15.2924270  12.4138070  64.0009670  16.3552000  11.8888140
  47.9352970  61.9501270  58.1733160  47.8547020  61.0355880  57.9024870
  47.5217390  62.4468340  57.4672870  46.0671010  63.7280290  60.0542430
  45.2913110  63.2480730  60.3441000  46.7183940  63.0485940  59.8798590
  38.4928790  59.0001990  54.7160580  37.6045490  59.3417960  54.6140460
  38.7769980  58.8002310  53.8241410  36.4561800  61.6007640  60.6000280
  37.0277910  60.8329840  60.6003920  36.4563340  61.8996400  59.6906890
  45.5080000  66.4037480  60.0612590  45.4388280  65.4627420  59.9001720
  46.2699860  66.4938890  60.6335160  46.5385170  59.2107860  60.2881520
  46.9149990  58.3379740  60.1755190  46.4404680  59.5466560  59.3971960
  40.6690180  57.5833490  55.7498960  40.7756930  58.4837220  56.0567720
  39.7582540  57.5351460  55.4593610  50.3209290  56.7058300  57.2209860
  51.1418910  56.2154870  57.2635340  50.3543370  57.2955960  57.9741700
  42.5097910  60.5519860  60.0824140  43.0176130  61.0500830  60.7229160
  43.0411150  59.7755060  59.9063500  47.1805100  65.3037730  55.8477460
  46.5622370  65.7687180  55.2840180  47.6928350  65.9965210  56.2646970
  50.5570770  58.6458680  59.9937400  49.8526340  58.9343570  60.5740510
  50.9182930  59.4558790  59.6336960  36.5488300  65.9894260  53.2217090
  36.1716280  66.4781360  52.4901990  36.8061370  66.6619540  53.8523620
  53.6257690  58.0913470  60.3846610  52.6782600  58.1252450  60.5162040
  53.9507680  58.9052420  60.7695970  44.1577230  54.3910650  58.6802600
  44.4652210  53.8357540  57.9638100  43.2277930  54.5255110  58.4975590
  51.0037710  66.8294160  56.0600230  50.8934040  65.8868490  56.1849650
  51.0005960  67.1909800  56.9462990  46.5457990  62.4559480  55.4162720
  45.6187270  62.3896860  55.6451190  46.6982810  63.3939610  55.3017960
  46.5327070  58.7276480  52.4129880  45.5930740  58.8890440  52.4982340
  46.8510330  59.4462160  51.8665870  50.5755280  64.0179780  55.9197970
  49.9567700  63.6799330  55.2724270  50.5579730  63.3739540  56.6277160
  42.1514630  62.9824220  58.1982450  41.7471630  62.2701470  57.7028350
  42.2377750  62.6377460  59.0870490  42.6196330  66.6691780  60.3621660
  42.3224620  66.0637250  59.6829440  43.5696150  66.7069090  60.2511020
  48.7519980  63.2566590  52.9270720  49.1913260  62.4189020  52.7808540
  49.4648400  63.8895990  53.0134860  52.3337120  54.5109400  51.2411760
  52.0209780  54.6036230  52.1410830  53.0949590  55.0890430  51.1909190
  38.8519260  61.8769200  55.6989100  38.7316860  62.6031290  55.0870370
  38.5420150  61.1072110  55.2217010  37.7352260  66.7484530  57.9163920
  37.3280340  66.8899120  57.0617520  38.6265270  66.4644690  57.7135130
  41.3182920  55.2204270  59.0812770  40.8751070  56.0013810  58.7497290
  41.8767910  55.5434160  59.7883710  44.4341740  54.8414970  53.9618600
  43.8095920  54.8374840  54.6871910  44.3471860  53.9745930  53.5654570
  43.3558820  55.7651600  60.9402370  43.6531150  56.6714430  60.8594390
  43.9044380  55.2770380  60.3261940  41.1097140  60.3437840  56.8094020
  40.8838060  60.1275010  57.7140640  40.3289670  60.7766300  56.4639990
  48.3394900  60.3501210  55.4084670  47.7403790  61.0737010  55.2248290
  48.8874510  60.2877990  54.6261120  46.9459770  58.9864750  57.4387950
  47.3389340  59.3036950  56.6256640  47.3076620  58.1076630  57.5532470
  35.9823940  55.5765550  59.6618150  35.6936990  56.1468410  60.3743130
  36.7269700  55.0970000  60.0249380  36.1694170  59.5185670  50.8720870
  36.0868840  60.4616430  51.0135860  35.8177230  59.3760580  49.9933220
  43.9692300  58.2524700  59.9391220  43.9728360  57.8114650  59.0895760
  44.8643420  58.5742030  60.0463040  39.8194680  58.1351190  58.8985430
  39.4794730  58.6126420  59.6552480  39.0572000  57.6816310  58.5386530
  44.0312450  59.2536780  52.9297980  44.1525270  59.2123260  53.8783800
  43.6460960  60.1160930  52.7744710  43.0433950  61.5637920  52.3281280
  42.4750850  61.1156170  51.7017190  43.7522950  61.9230700  51.7946430
  37.1340760  57.0570170  57.8150100  36.8487680  56.6925840  58.6528720
  37.0719620  56.3250630  57.2013240  40.5881430  65.5596110  54.6007690
  39.8143690  65.0193730  54.4406410  41.3176060  65.0402720  54.2625450
  51.3469410  64.5561470  60.3934080  52.0668530  65.0516760  60.0030190
  51.1451230  63.8779360  59.7487950  46.8079350  55.9499430  54.5363470
  45.9943960  55.4512600  54.4608780  46.6141300  56.7897680  54.1199820
  49.5227740  60.3219080  52.8325630  50.4107360  60.6336310  52.6576970
  49.4932830  59.4491330  52.4406210  40.6318830  65.2276490  58.2386500
  41.1497500  64.4244750  58.1843390  40.1802850  65.1655630  59.0803330
  45.5188330  66.4942770  53.5113800  45.8604030  67.2385000  53.0157120
  44.6901040  66.8073890  53.8738630  51.7942010  61.6330920  52.3005490
  51.7105730  62.0645140  51.4501930  52.5136200  62.0929270  52.7332310
  48.4015740  65.8158610  58.8759310  48.7539560  65.2186740  58.2160680
  47.5178070  65.4902840  59.0467560  44.4879020  66.5756300  56.2829720
  45.1750150  67.1225510  56.6637310  43.7011440  67.1197030  56.3179330
  36.6271420  62.1929120  51.7746800  37.4966270  62.4753920  52.0582720
  36.1361740  63.0064990  51.6595610  43.7906230  63.5802330  55.8955080
  44.2469010  64.3907580  56.1215270  43.4394440  63.2625470  56.7273570
  39.6918010  53.9239980  56.3677600  39.5632640  53.9157880  57.3162520
  38.8680030  54.2623070  56.0168610  51.2126640  67.3789640  51.5663970
  50.9864220  66.6620080  52.1588610  50.8222840  67.1302080  50.7285720
  50.7942890  65.2961580  53.2278130  50.5064590  65.7574270  54.0156010
  51.5895060  64.8359350  53.4962350  38.6117930  64.0102590  53.9028860
  38.0045880  64.7501490  53.9124160  39.0867280  64.1001950  53.0767060
  51.5512750  57.1310350  54.3873310  50.9225910  57.2356020  53.6731540
  51.0564670  57.3507130  55.1767190  43.5196780  59.4096300  55.8031190
  42.8112930  59.8782640  56.2444800  43.8041260  58.7518310  56.4376380
  47.5512210  56.1346960  57.2426980  47.4279990  56.1533090  56.2936490
  48.4996770  56.1825900  57.3625380  41.7231800  57.7181380  53.1781900
  42.5722330  58.1551530  53.1122090  41.3563070  58.0301640  54.0053960
  50.6441580  62.2894140  58.0913470  49.7031720  62.3044370  58.2661160
  50.9585650  61.5030100  58.5373770  40.6223220  63.9713740  51.6517430
  41.3886490  63.8595100  52.2142860  40.6997910  63.2751710  50.9994200
  39.3169980  61.4038810  52.3350320  39.3973570  60.4566320  52.4467720
  40.2089730  61.7345690  52.4410980  43.7464400  65.9467920  51.1252780
  43.6415040  65.3320270  51.8514160  43.5788620  65.4233810  50.3415790
  46.9867130  65.0087950  51.7294770  46.4377230  65.4557250  52.3737510
  47.6086390  64.5037200  52.2532440  42.6542250  63.9678870  53.6260070
  43.0758670  63.8018740  54.4691460  42.7793090  63.1579100  53.1315210
  45.1669890  62.9916480  50.8737170  45.6875550  62.2765500  50.5078320
  45.8138290  63.6302350  51.1737680  41.5501150  60.0412100  50.5718230
  41.3490210  59.1779460  50.9331570  41.3793200  59.9545460  49.6339830
  49.0289460  54.8520330  53.1005110  49.3091750  54.0088230  53.4564530
  48.2555190  55.0843440  53.6143860  40.3483950  57.1412720  50.5596110
  40.6509850  57.1480150  49.6515260  41.0878540  56.7910580  51.0563770
  43.5668880  56.0847340  51.5452310  43.2190880  55.4071330  50.9654760
  43.7681650  55.6236850  52.3595700  39.3714080  66.4455140  51.3925910
  39.8088950  66.9884810  52.0483490  39.8561810  65.6202090  51.4022250
  53.4070180  64.0897060  53.7109020  54.1689090  64.6593710  53.8168710
  53.4224550  63.5224260  54.4817330  36.9074520  62.6134990  57.9416680
  36.2523360  62.3446630  57.2976380  37.7452470  62.5039470  57.4918660
  54.4130150  64.9447160  58.5550950  54.7838980  64.1614480  58.1486920
  55.0532080  65.6336260  58.3768250  53.4589350  64.3831430  50.8681540
  53.7338190  65.2910310  50.7400760  53.2700090  64.3193960  51.8043530
  49.8564960  57.4076280  52.1635170  50.2749840  57.2207260  51.3231830
  49.5501020  56.5555330  52.4738100  53.3554690  62.3200420  55.8610970
  52.9798290  61.5528350  55.4292260  52.6257810  62.7023120  56.3485900
  36.1212600  59.8233920  53.8842010  35.2176680  60.0864120  53.7093670
  36.6053220  60.0945090  53.1041970  52.6305650  60.5457910  59.1618210
  53.1543130  60.0520560  58.5308380  53.2165070  60.6808270  59.9065780
  38.6639810  58.8799460  51.7936390  39.3731510  58.4582680  51.3083670
  37.9479750  58.9474690  51.1619740  38.3113970  54.9338790  50.8339040
  39.0342100  55.4747730  51.1520260  38.5838490  54.6602210  49.9580580
  52.1205620  59.8031260  55.1010620  52.6164740  59.5702130  55.8859500
  51.9221690  58.9643100  54.6848260  53.5492780  58.4392210  57.6348300
  53.4392060  58.2848250  58.5730570  54.3100370  57.9113150  57.3923710
  54.4383050  56.2700130  50.8754440  55.3632360  56.1381310  50.6672730
  54.4158840  56.3492950  51.8290890  54.5121540  57.0410790  53.5011150
  53.7173040  56.9755910  54.0304060  54.7164820  57.9761430  53.4896500
  50.9441470  55.3707670  59.9509980  51.3849560  55.3152770  59.1031580
  50.6749060  56.2865680  60.0220160  52.8080040  55.0022910  57.9618800
  52.7468440  54.0584130  57.8149820  53.5872070  55.1103000  58.5072260
  37.7360810  54.9732050  54.4274610  38.4940170  55.0860930  53.8538640
  37.2737980  55.8101250  54.3818040  44.2774620  57.0871320  57.4176920
  43.4649130  56.7128210  57.0772800  44.7816260  56.3316400  57.7198110
  48.7799600  53.7513770  58.6559990  49.3828970  54.3233980  59.1308510
  48.0392590  54.3153210  58.4333890  51.9234200  54.1535330  53.9300270
  52.1184830  55.0518780  54.1967700  51.1364070  53.9222410  54.4233220
  40.1085960  55.4996100  52.9676580  40.6378720  54.7125900  52.8384530
  40.7414280  56.1787290  53.2012110  42.3023800  55.2371240  56.0221970
  41.6726540  54.5358550  56.1892100  41.7628940  55.9975370  55.8055130
  47.9352970  61.9501270  39.3989670  47.8547020  61.0355880  39.1281380
  47.5217390  62.4468340  38.6929380  46.0671010  63.7280290  41.2798940
  45.2913110  63.2480730  41.5697510  46.7183940  63.0485940  41.1055100
  40.0836840  64.0400100  42.1574700  39.2521720  63.7848810  42.5571210
  40.6917820  64.1110870  42.8932620  38.4928790  59.0001990  35.9417090
  37.6045490  59.3417960  35.8396970  38.7769980  58.8002310  35.0497920
  36.4561800  61.6007640  41.8256790  37.0277910  60.8329840  41.8260430
  36.4563340  61.8996400  40.9163400  45.5080000  66.4037480  41.2869100
  45.4388280  65.4627420  41.1258230  46.2699860  66.4938890  41.8591670
  37.6986670  57.0092000  43.6125720  37.5189510  56.1117750  43.8928480
  37.2966750  57.5563870  44.2872670  46.5385170  59.2107860  41.5138030
  46.9149990  58.3379740  41.4011700  46.4404680  59.5466560  40.6228470
  40.6690180  57.5833490  36.9755470  40.7756930  58.4837220  37.2824230
  39.7582540  57.5351460  36.6850120  50.3209290  56.7058300  38.4466370
  51.1418910  56.2154870  38.4891850  50.3543370  57.2955960  39.1998210
  38.3173340  59.5052500  42.2208060  38.9983450  59.7690870  42.8395460
  38.0021390  58.6653370  42.5546070  42.5097910  60.5519860  41.3080650
  43.0176130  61.0500830  41.9485670  43.0411150  59.7755060  41.1320010
  54.6108840  58.7225050  45.0110000  53.9061010  59.1106760  44.4925110
  54.8766760  59.4175340  45.6130930  40.7934010  55.1918420  45.5744070
  40.7952450  55.7090810  44.7689970  39.9638320  54.7148600  45.5514000
  47.1805100  65.3037730  37.0733970  46.5622370  65.7687180  36.5096690
  47.6928350  65.9965210  37.4903480  42.0436860  64.8313600  43.7517570
  41.7106240  65.4582520  44.3938640  42.2203540  65.3575480  42.9719240
  50.5570770  58.6458680  41.2193910  49.8526340  58.9343570  41.7997020
  50.9182930  59.4558790  40.8593470  40.4749340  56.9028380  43.5814520
  40.8166150  57.7470430  43.2868390  39.5365150  57.0512120  43.6979860
  36.5488300  65.9894260  34.4473600  36.1716280  66.4781360  33.7158500
  36.8061370  66.6619540  35.0780130  53.6257690  58.0913470  41.6103120
  52.6782600  58.1252450  41.7418550  53.9507680  58.9052420  41.9952480
  44.1577230  54.3910650  39.9059110  44.4652210  53.8357540  39.1894610
  43.2277930  54.5255110  39.7232100  51.0037710  66.8294160  37.2856740
  50.8934040  65.8868490  37.4106160  51.0005960  67.1909800  38.1719500
  49.1077730  65.0107780  43.5249180  49.5246520  64.7967890  42.6902640
  49.8317550  65.2680570  44.0957800  46.5457990  62.4559480  36.6419230
  45.6187270  62.3896860  36.8707700  46.6982810  63.3939610  36.5274470
  46.5327070  58.7276480  33.6386390  45.5930740  58.8890440  33.7238850
  46.8510330  59.4462160  33.0922380  53.0539830  63.4095000  43.6165420
  52.2258460  63.4788090  43.1415550  53.6490310  63.9949310  43.1481250
  50.5755280  64.0179780  37.1454480  49.9567700  63.6799330  36.4980780
  50.5579730  63.3739540  37.8533670  50.0181840  60.1964320  44.5620290
  49.6053020  61.0218030  44.8160280  49.2857790  59.6109360  44.3696650
  42.1514630  62.9824220  39.4238960  41.7471630  62.2701470  38.9284860
  42.2377750  62.6377460  40.3127000  42.6196330  66.6691780  41.5878170
  42.3224620  66.0637250  40.9085950  43.5696150  66.7069090  41.4767530
  40.8643250  59.7567430  43.2038000  41.4157840  59.8662770  42.4291250
  41.3786760  60.1305030  43.9193230  41.7114760  66.4073470  48.2385970
  40.8143290  66.6313440  48.4859370  41.7367630  66.5308410  47.2897370
  48.7519980  63.2566590  34.1527230  49.1913260  62.4189020  34.0065050
  49.4648400  63.8895990  34.2391370  40.5385980  63.2786790  46.8143340
  40.3993750  64.1509590  47.1830740  39.6567340  62.9359600  46.6691280
  52.3337120  54.5109400  32.4668270  52.0209780  54.6036230  33.3667340
  53.0949590  55.0890430  32.4165700  38.8519260  61.8769200  36.9245610
  38.7316860  62.6031290  36.3126880  38.5420150  61.1072110  36.4473520
  36.4904630  65.0484340  42.7314250  36.5685050  65.1833110  41.7869970
  37.1046310  64.3400230  42.9242370  37.7352260  66.7484530  39.1420430
  37.3280340  66.8899120  38.2874030  38.6265270  66.4644690  38.9391640
  53.6914400  67.1948440  47.4792670  53.8177460  66.9560320  46.5609850
  53.7335780  66.3632980  47.9514750  53.5438410  59.2480900  48.4442410
  52.9282680  59.7560570  47.9157870  53.2234830  58.3479230  48.3868350
  36.5464150  66.0898510  45.2708710  36.7095190  65.6203870  44.4528080
  37.0116600  65.5822070  45.9357550  41.3182920  55.2204270  40.3069280
  40.8751070  56.0013810  39.9753800  41.8767910  55.5434160  41.0140220
  45.6052730  58.0872790  45.9104600  45.1432100  58.2955810  46.7224540
  45.2030840  57.2732140  45.6075270  50.6057240  59.3081740  47.0401260
  49.7550830  59.0087490  47.3610330  50.4459030  59.5523750  46.1285080
  47.7006950  60.8083490  49.1400050  48.0260360  59.9747240  48.8002280
  48.4887280  61.3312010  49.2878380  44.4341740  54.8414970  35.1875110
  43.8095920  54.8374840  35.9128420  44.3471860  53.9745930  34.7911080
  43.3558820  55.7651600  42.1658880  43.6531150  56.6714430  42.0850900
  43.9044380  55.2770380  41.5518450  41.1097140  60.3437840  38.0350530
  40.8838060  60.1275010  38.9397150  40.3289670  60.7766300  37.6896500
  48.3394900  60.3501210  36.6341180  47.7403790  61.0737010  36.4504800
  48.8874510  60.2877990  35.8517630  43.5496350  61.2423420  48.7010800
  43.4539950  60.3018150  48.5511200  44.3928330  61.4638490  48.3058870
  46.9459770  58.9864750  38.6644460  47.3389340  59.3036950  37.8513150
  47.3076620  58.1076630  38.7788980  38.6806890  57.6537090  46.8544580
  38.2870280  58.5012300  47.0617360  37.9925290  57.0163460  47.0453220
  45.2551940  57.7372060  49.9241320  44.5650260  57.5444260  50.5587410
  45.9984240  58.0206700  50.4565620  35.9823940  55.5765550  40.8874660
  35.6936990  56.1468410  41.5999640  36.7269700  55.0970000  41.2505890
  36.1694170  59.5185670  32.0977380  36.0868840  60.4616430  32.2392370
  35.8177230  59.3760580  31.2189730  47.5314910  61.5770500  42.7595240
  46.7996030  62.0857310  43.1085340  47.1339250  60.7600480  42.4584020
  43.9692300  58.2524700  41.1647730  43.9728360  57.8114650  40.3152270
  44.8643420  58.5742030  41.2719550  39.8194680  58.1351190  40.1241940
  39.4794730  58.6126420  40.8808990  39.0572000  57.6816310  39.7643040
  44.0312450  59.2536780  34.1554490  44.1525270  59.2123260  35.1040310
  43.6460960  60.1160930  34.0001220  47.9940820  57.0304180  42.1718180
  48.0113560  57.4812830  43.0160030  47.7456400  56.1309820  42.3851620
  43.0433950  61.5637920  33.5537790  42.4750850  61.1156170  32.9273700
  43.7522950  61.9230700  33.0202940  51.4211570  54.4436360  48.0104560
  51.7457340  53.7126020  48.5362540  51.4568080  54.1250000  47.1085550
  38.1203130  65.4649940  47.4304520  37.7357920  64.8243610  48.0287480
  38.4315320  66.1686060  47.9999250  44.2700270  62.3126480  42.9113140
  44.6370400  61.8385050  43.6574480  44.0805330  63.1868050  43.2521480
  37.1340760  57.0570170  39.0406610  36.8487680  56.6925840  39.8785230
  37.0719620  56.3250630  38.4269750  42.0599640  61.3535120  45.2297350
  41.7556710  62.2327100  45.4547710  43.0146100  61.4134910  45.2654790
  40.5881430  65.5596110  35.8264200  39.8143690  65.0193730  35.6662920
  41.3176060  65.0402720  35.4881960  51.3469410  64.5561470  41.6190590
  52.0668530  65.0516760  41.2286700  51.1451230  63.8779360  40.9744460
  46.8079350  55.9499430  35.7619980  45.9943960  55.4512600  35.6865290
  46.6141300  56.7897680  35.3456330  46.7288210  64.6270530  47.5059590
  46.6625520  63.7066200  47.2517180  46.0993350  64.7245970  48.2204230
  49.5227740  60.3219080  34.0582140  50.4107360  60.6336310  33.8833480
  49.4932830  59.4491330  33.6662720  40.6318830  65.2276490  39.4643010
  41.1497500  64.4244750  39.4099900  40.1802850  65.1655630  40.3059840
  45.5188330  66.4942770  34.7370310  45.8604030  67.2385000  34.2413630
  44.6901040  66.8073890  35.0995140  38.1163370  62.1937860  46.3768710
  37.7578310  62.8591710  46.9642050  37.8217930  61.3621410  46.7481330
  41.3176490  62.6522100  49.2608260  41.0176630  62.7979280  48.3636080
  42.0887730  62.0927390  49.1681650  51.7942010  61.6330920  33.5262000
  51.7105730  62.0645140  32.6758440  52.5136200  62.0929270  33.9588820
  52.8716150  64.0898440  46.6031970  52.1464340  64.6827220  46.4061360
  53.3991610  64.0821980  45.8045340  48.4015740  65.8158610  40.1015820
  48.7539560  65.2186740  39.4417190  47.5178070  65.4902840  40.2724070
  44.4879020  66.5756300  37.5086230  45.1750150  67.1225510  37.8893820
  43.7011440  67.1197030  37.5435840  36.6271420  62.1929120  33.0003310
  37.4966270  62.4753920  33.2839230  36.1361740  63.0064990  32.8852120
  43.7906230  63.5802330  37.1211590  44.2469010  64.3907580  37.3471780
  43.4394440  63.2625470  37.9530080  39.6918010  53.9239980  37.5934110
  39.5632640  53.9157880  38.5419030  38.8680030  54.2623070  37.2425120
  51.2126640  67.3789640  32.7920480  50.9864220  66.6620080  33.3845120
  50.8222840  67.1302080  31.9542230  36.6911940  55.6831100  47.0540810
  35.9770460  55.8828020  47.6593420  37.1106980  54.9070670  47.4255610
  50.7942890  65.2961580  34.4534640  50.5064590  65.7574270  35.2412520
  51.5895060  64.8359350  34.7218860  38.6117930  64.0102590  35.1285370
  38.0045880  64.7501490  35.1380670  39.0867280  64.1001950  34.3023570
  48.1850720  58.1753410  44.8042260  48.5531540  57.3548620  45.1321830
  47.3248920  58.2355300  45.2197910  51.5512750  57.1310350  35.6129820
  50.9225910  57.2356020  34.8988050  51.0564670  57.3507130  36.4023700
  43.5196780  59.4096300  37.0287700  42.8112930  59.8782640  37.4701310
  43.8041260  58.7518310  37.6632890  45.1452710  60.8293000  45.0280230
  45.6437960  61.3038820  45.6932080  45.2875660  59.9056520  45.2350260
  47.5512210  56.1346960  38.4683490  47.4279990  56.1533090  37.5193000
  48.4996770  56.1825900  38.5881890  41.7231800  57.7181380  34.4038410
  42.5722330  58.1551530  34.3378600  41.3563070  58.0301640  35.2310470
  52.3519570  57.0460960  45.8708620  51.8493170  57.7866360  46.2102430
  53.1676230  57.4344960  45.5545410  50.6441580  62.2894140  39.3169980
  49.7031720  62.3044370  39.4917670  50.9585650  61.5030100  39.7630280
  40.6223220  63.9713740  32.8773940  41.3886490  63.8595100  33.4399370
  40.6997910  63.2751710  32.2250710  39.3169980  61.4038810  33.5606830
  39.3973570  60.4566320  33.6724230  40.2089730  61.7345690  33.6667490
  47.9607600  66.8460140  49.8002360  47.3545760  66.8691740  49.0598110
  47.6561710  66.1143180  50.3369610  36.8440780  63.2253730  48.7963000
  37.3479800  62.6461010  49.3679230  36.1048200  63.5093960  49.3339370
  43.7464400  65.9467920  32.3509290  43.6415040  65.3320270  33.0770670
  43.5788620  65.4233810  31.5672300  43.8978720  64.6324720  48.3298520
  43.1324390  65.2009720  48.2453190  44.0794680  64.3400930  47.4366750
  46.9867130  65.0087950  32.9551280  46.4377230  65.4557250  33.5994020
  47.6086390  64.5037200  33.4788950  51.0402070  66.3630050  48.8873540
  51.7811540  66.7005810  48.3841000  50.2774750  66.5322110  48.3343310
  38.8763860  61.3683320  49.6913070  38.9169200  61.0697190  50.5998300
  39.7309360  61.7690930  49.5320590  42.6542250  63.9678870  34.8516580
  43.0758670  63.8018740  35.6947970  42.7793090  63.1579100  34.3571720
  40.8169670  59.9475420  47.6587560  40.2866130  59.4566370  47.0310900
  41.4857740  60.3759620  47.1245490  45.1669890  62.9916480  32.0993680
  45.6875550  62.2765500  31.7334830  45.8138290  63.6302350  32.3994190
  49.7147730  64.4144880  47.4228750  50.1288750  64.5689960  48.2719170
  48.7798730  64.5400100  47.5854530  50.1869900  61.7541040  49.4267900
  50.7690670  60.9993360  49.3388380  50.3631670  62.2848480  48.6499380
  41.3041970  56.9137790  47.7384850  41.2098840  56.2958540  47.0135720
  40.7239360  57.6404080  47.5114760  44.0703410  55.4711030  44.7712240
  43.6220710  55.4935290  43.9257790  43.4368610  55.0730050  45.3682540
  44.4762960  64.3665360  45.3924680  44.8951070  65.2098090  45.2200920
  43.5571590  64.5037400  45.1631460  46.8126860  62.0981540  46.7762520
  46.9323070  61.5022680  47.5157360  47.6720860  62.1351230  46.3563820
  49.1514760  62.6518730  45.3525030  48.6249980  63.1761350  44.7490170
  49.4946100  63.2846120  45.9834760  41.5501150  60.0412100  31.7974740
  41.3490210  59.1779460  32.1588080  41.3793200  59.9545460  30.8596340
  43.5795630  58.6402890  48.0338340  44.1695320  58.3318740  48.7216160
  42.7615870  58.1682640  48.1898240  48.3989060  58.2568700  48.2671360
  47.7104580  57.5950240  48.2021350  49.1195080  57.8106970  48.7119820
  49.0289460  54.8520330  34.3261620  49.3091750  54.0088230  34.6821040
  48.2555190  55.0843440  34.8400370  40.3483950  57.1412720  31.7852620
  40.6509850  57.1480150  30.8771770  41.0878540  56.7910580  32.2820280
  43.5668880  56.0847340  32.7708820  43.2190880  55.4071330  32.1911270
  43.7681650  55.6236850  33.5852210  39.3714080  66.4455140  32.6182420
  39.8088950  66.9884810  33.2740000  39.8561810  65.6202090  32.6278760
  53.4070180  64.0897060  34.9365530  54.1689090  64.6593710  35.0425220
  53.4224550  63.5224260  35.7073840  36.9074520  62.6134990  39.1673190
  36.2523360  62.3446630  38.5232890  37.7452470  62.5039470  38.7175170
  54.4130150  64.9447160  39.7807460  54.7838980  64.1614480  39.3743430
  55.0532080  65.6336260  39.6024760  51.3963910  66.3283740  45.1937780
  50.5823750  66.7580900  45.4563570  51.8038110  66.9402150  44.5806830
  53.4589350  64.3831430  32.0938050  53.7338190  65.2910310  31.9657270
  53.2700090  64.3193960  33.0300040  49.8564960  57.4076280  33.3891680
  50.2749840  57.2207260  32.5488340  49.5501020  56.5555330  33.6994610
  53.3554690  62.3200420  37.0867480  52.9798290  61.5528350  36.6548770
  52.6257810  62.7023120  37.5742410  37.9450450  62.9987560  43.7076530
  38.3123490  62.9114960  44.5872550  37.3761270  62.2354110  43.6083390
  52.7454310  61.4671940  46.7207000  52.5140400  61.2384690  45.8204950
  53.0058860  62.3871490  46.6751890  37.4966450  59.9096650  47.6134950
  36.6022500  59.8763410  47.9528660  38.0364000  60.1083440  48.3786200
  51.1842380  56.6928370  49.4986700  52.0612560  56.7011770  49.8820700
  51.1963220  55.9559210  48.8879050  36.1212600  59.8233920  35.1098520
  35.2176680  60.0864120  34.9350180  36.6053220  60.0945090  34.3298480
  52.6305650  60.5457910  40.3874720  53.1543130  60.0520560  39.7564890
  53.2165070  60.6808270  41.1322290  52.8095370  60.6297780  43.9094270
  51.8598080  60.5961320  44.0239260  52.9908380  61.5397890  43.6744040
  38.6639810  58.8799460  33.0192900  39.3731510  58.4582680  32.5340180
  37.9479750  58.9474690  32.3876250  38.3113970  54.9338790  32.0595550
  39.0342100  55.4747730  32.3776770  38.5838490  54.6602210  31.1837090
  52.1205620  59.8031260  36.3267130  52.6164740  59.5702130  37.1116010
  51.9221690  58.9643100  35.9104770  38.0006160  54.1844980  41.9618170
  38.6482350  53.6342360  41.5213330  38.4208000  54.4388130  42.7833980
  53.5492780  58.4392210  38.8604810  53.4392060  58.2848250  39.7987080
  54.3100370  57.9113150  38.6180220  51.8958500  54.3786340  45.3187810
  52.5330720  54.9920480  45.6847000  52.0433390  54.4147000  44.3737040
  54.4383050  56.2700130  32.1010950  55.3632360  56.1381310  31.8929240
  54.4158840  56.3492950  33.0547400  54.5121540  57.0410790  34.7267660
  53.7173040  56.9755910  35.2560570  54.7164820  57.9761430  34.7153010
  37.7538160  54.3400650  44.7043490  37.4052980  54.7964470  45.4701670
  37.4225860  53.4457780  44.7865920  45.2662980  55.5312530  48.2262910
  45.2051870  56.1234360  48.9758320  46.2063360  55.4238490  48.0813170
  47.9037540  55.1882590  47.8655200  48.5177950  55.5061880  47.2036280
  48.4487100  54.7031180  48.4851060  38.4258800  53.8676850  47.9794260
  38.9741790  53.6864900  47.2160370  38.4914110  53.0770960  48.5150570
  48.6445580  53.7514730  44.1924490  47.7705420  54.0849840  43.9897420
  48.5356330  53.2787910  45.0176360  49.5517560  55.9585600  45.5766210
  49.2230920  55.1437360  45.1967940  50.4999860  55.9155410  45.4531900
  46.3920400  54.6684570  43.1317400  45.6092190  55.1430070  43.4114160
  46.0983330  53.7639400  43.0230580  50.9441470  55.3707670  41.1766490
  51.3849560  55.3152770  40.3288090  50.6749060  56.2865680  41.2476670
  52.8080040  55.0022910  39.1875310  52.7468440  54.0584130  39.0406330
  53.5872070  55.1103000  39.7328770  37.7360810  54.9732050  35.6531120
  38.4940170  55.0860930  35.0795150  37.2737980  55.8101250  35.6074550
  44.2774620  57.0871320  38.6433430  43.4649130  56.7128210  38.3029310
  44.7816260  56.3316400  38.9454620  48.7799600  53.7513770  39.8816500
  49.3828970  54.3233980  40.3565020  48.0392590  54.3153210  39.6590400
  51.9234200  54.1535330  35.1556780  52.1184830  55.0518780  35.4224210
  51.1364070  53.9222410  35.6489730  40.1085960  55.4996100  34.1933090
  40.6378720  54.7125900  34.0641040  40.7414280  56.1787290  34.4268620
  42.3023800  55.2371240  37.2478480  41.6726540  54.5358550  37.4148610
  41.7628940  55.9975370  37.0311640  42.4279360  54.5155220  49.6830970
  42.1463630  55.0188820  48.9191790  42.8099060  53.7176970  49.3173100
  49.0294820  53.9308800  50.2611440  48.9160270  54.2503410  51.1562960
  49.8464560  54.3321310  49.9648720  47.9352970  61.9501270  20.6246180
  47.8547020  61.0355880  20.3537890  47.5217390  62.4468340  19.9185890
  46.0671010  63.7280290  22.5055450  45.2913110  63.2480730  22.7954020
  46.7183940  63.0485940  22.3311610  40.0836840  64.0400100  23.3831210
  39.2521720  63.7848810  23.7827720  40.6917820  64.1110870  24.1189130
  38.4928790  59.0001990  17.1673600  37.6045490  59.3417960  17.0653480
  38.7769980  58.8002310  16.2754430  36.4561800  61.6007640  23.0513300
  37.0277910  60.8329840  23.0516940  36.4563340  61.8996400  22.1419910
  45.5080000  66.4037480  22.5125610  45.4388280  65.4627420  22.3514740
  46.2699860  66.4938890  23.0848180  37.6986670  57.0092000  24.8382230
  37.5189510  56.1117750  25.1184990  37.2966750  57.5563870  25.5129180
  46.5385170  59.2107860  22.7394540  46.9149990  58.3379740  22.6268210
  46.4404680  59.5466560  21.8484980  40.6690180  57.5833490  18.2011980
  40.7756930  58.4837220  18.5080740  39.7582540  57.5351460  17.9106630
  50.3209290  56.7058300  19.6722880  51.1418910  56.2154870  19.7148360
  50.3543370  57.2955960  20.4254720  38.3173340  59.5052500  23.4464570
  38.9983450  59.7690870  24.0651970  38.0021390  58.6653370  23.7802580
  42.5097910  60.5519860  22.5337160  43.0176130  61.0500830  23.1742180
  43.0411150  59.7755060  22.3576520  54.6108840  58.7225050  26.2366510
  53.9061010  59.1106760  25.7181620  54.8766760  59.4175340  26.8387440
  40.7934010  55.1918420  26.8000580  40.7952450  55.7090810  25.9946480
  39.9638320  54.7148600  26.7770510  47.1805100  65.3037730  18.2990480
  46.5622370  65.7687180  17.7353200  47.6928350  65.9965210  18.7159990
  42.0436860  64.8313600  24.9774080  41.7106240  65.4582520  25.6195150
  42.2203540  65.3575480  24.1975750  50.5570770  58.6458680  22.4450420
  49.8526340  58.9343570  23.0253530  50.9182930  59.4558790  22.0849980
  40.4749340  56.9028380  24.8071030  40.8166150  57.7470430  24.5124900
  39.5365150  57.0512120  24.9236370  36.5488300  65.9894260  15.6730110
  36.1716280  66.4781360  14.9415010  36.8061370  66.6619540  16.3036640
  53.6257690  58.0913470  22.8359630  52.6782600  58.1252450  22.9675060
  53.9507680  58.9052420  23.2208990  44.1577230  54.3910650  21.1315620
  44.4652210  53.8357540  20.4151120  43.2277930  54.5255110  20.9488610
  51.0037710  66.8294160  18.5113250  50.8934040  65.8868490  18.6362670
  51.0005960  67.1909800  19.3976010  49.1077730  65.0107780  24.7505690
  49.5246520  64.7967890  23.9159150  49.8317550  65.2680570  25.3214310
  46.5457990  62.4559480  17.8675740  45.6187270  62.3896860  18.0964210
  46.6982810  63.3939610  17.7530980  46.5327070  58.7276480  14.8642900
  45.5930740  58.8890440  14.9495360  46.8510330  59.4462160  14.3178890
  53.0539830  63.4095000  24.8421930  52.2258460  63.4788090  24.3672060
  53.6490310  63.9949310  24.3737760  50.5755280  64.0179780  18.3710990
  49.9567700  63.6799330  17.7237290  50.5579730  63.3739540  19.0790180
  50.0181840  60.1964320  25.7876800  49.6053020  61.0218030  26.0416790
  49.2857790  59.6109360  25.5953160  42.1514630  62.9824220  20.6495470
  41.7471630  62.2701470  20.1541370  42.2377750  62.6377460  21.5383510
  42.6196330  66.6691780  22.8134680  42.3224620  66.0637250  22.1342460
  43.5696150  66.7069090  22.7024040  40.8643250  59.7567430  24.4294510
  41.4157840  59.8662770  23.6547760  41.3786760  60.1305030  25.1449740
  41.7114760  66.4073470  29.4642480  40.8143290  66.6313440  29.7115880
  41.7367630  66.5308410  28.5153880  48.7519980  63.2566590  15.3783740
  49.1913260  62.4189020  15.2321560  49.4648400  63.8895990  15.4647880
  40.5385980  63.2786790  28.0399850  40.3993750  64.1509590  28.4087250
  39.6567340  62.9359600  27.8947790  52.3337120  54.5109400  13.6924780
  52.0209780  54.6036230  14.5923850  53.0949590  55.0890430  13.6422210
  38.8519260  61.8769200  18.1502120  38.7316860  62.6031290  17.5383390
  38.5420150  61.1072110  17.6730030  36.4904630  65.0484340  23.9570760
  36.5685050  65.1833110  23.0126480  37.1046310  64.3400230  24.1498880
  37.7352260  66.7484530  20.3676940  37.3280340  66.8899120  19.5130540
  38.6265270  66.4644690  20.1648150  53.6914400  67.1948440  28.7049180
  53.8177460  66.9560320  27.7866360  53.7335780  66.3632980  29.1771260
  53.5438410  59.2480900  29.6698920  52.9282680  59.7560570  29.1414380
  53.2234830  58.3479230  29.6124860  36.5464150  66.0898510  26.4965220
  36.7095190  65.6203870  25.6784590  37.0116600  65.5822070  27.1614060
  41.3182920  55.2204270  21.5325790  40.8751070  56.0013810  21.2010310
  41.8767910  55.5434160  22.2396730  45.6052730  58.0872790  27.1361110
  45.1432100  58.2955810  27.9481050  45.2030840  57.2732140  26.8331780
  50.6057240  59.3081740  28.2657770  49.7550830  59.0087490  28.5866840
  50.4459030  59.5523750  27.3541590  47.7006950  60.8083490  30.3656560
  48.0260360  59.9747240  30.0258790  48.4887280  61.3312010  30.5134890
  44.4341740  54.8414970  16.4131620  43.8095920  54.8374840  17.1384930
  44.3471860  53.9745930  16.0167590  43.3558820  55.7651600  23.3915390
  43.6531150  56.6714430  23.3107410  43.9044380  55.2770380  22.7774960
  41.1097140  60.3437840  19.2607040  40.8838060  60.1275010  20.1653660
  40.3289670  60.7766300  18.9153010  48.3394900  60.3501210  17.8597690
  47.7403790  61.0737010  17.6761310  48.8874510  60.2877990  17.0774140
  43.5496350  61.2423420  29.9267310  43.4539950  60.3018150  29.7767710
  44.3928330  61.4638490  29.5315380  46.9459770  58.9864750  19.8900970
  47.3389340  59.3036950  19.0769660  47.3076620  58.1076630  20.0045490
  38.6806890  57.6537090  28.0801090  38.2870280  58.5012300  28.2873870
  37.9925290  57.0163460  28.2709730  45.2551940  57.7372060  31.1497830
  44.5650260  57.5444260  31.7843920  45.9984240  58.0206700  31.6822130
  35.9823940  55.5765550  22.1131170  35.6936990  56.1468410  22.8256150
  36.7269700  55.0970000  22.4762400  36.1694170  59.5185670  13.3233890
  36.0868840  60.4616430  13.4648880  35.8177230  59.3760580  12.4446240
  47.5314910  61.5770500  23.9851750  46.7996030  62.0857310  24.3341850
  47.1339250  60.7600480  23.6840530  43.9692300  58.2524700  22.3904240
  43.9728360  57.8114650  21.5408780  44.8643420  58.5742030  22.4976060
  39.8194680  58.1351190  21.3498450  39.4794730  58.6126420  22.1065500
  39.0572000  57.6816310  20.9899550  44.0312450  59.2536780  15.3811000
  44.1525270  59.2123260  16.3296820  43.6460960  60.1160930  15.2257730
  47.9940820  57.0304180  23.3974690  48.0113560  57.4812830  24.2416540
  47.7456400  56.1309820  23.6108130  43.0433950  61.5637920  14.7794300
  42.4750850  61.1156170  14.1530210  43.7522950  61.9230700  14.2459450
  51.4211570  54.4436360  29.2361070  51.7457340  53.7126020  29.7619050
  51.4568080  54.1250000  28.3342060  38.1203130  65.4649940  28.6561030
  37.7357920  64.8243610  29.2543990  38.4315320  66.1686060  29.2255760
  44.2700270  62.3126480  24.1369650  44.6370400  61.8385050  24.8830990
  44.0805330  63.1868050  24.4777990  37.1340760  57.0570170  20.2663120
  36.8487680  56.6925840  21.1041740  37.0719620  56.3250630  19.6526260
  42.0599640  61.3535120  26.4553860  41.7556710  62.2327100  26.6804220
  43.0146100  61.4134910  26.4911300  40.5881430  65.5596110  17.0520710
  39.8143690  65.0193730  16.8919430  41.3176060  65.0402720  16.7138470
  51.3469410  64.5561470  22.8447100  52.0668530  65.0516760  22.4543210
  51.1451230  63.8779360  22.2000970  46.8079350  55.9499430  16.9876490
  45.9943960  55.4512600  16.9121800  46.6141300  56.7897680  16.5712840
  46.7288210  64.6270530  28.7316100  46.6625520  63.7066200  28.4773690
  46.0993350  64.7245970  29.4460740  49.5227740  60.3219080  15.2838650
  50.4107360  60.6336310  15.1089990  49.4932830  59.4491330  14.8919230
  40.6318830  65.2276490  20.6899520  41.1497500  64.4244750  20.6356410
  40.1802850  65.1655630  21.5316350  45.5188330  66.4942770  15.9626820
  45.8604030  67.2385000  15.4670140  44.6901040  66.8073890  16.3251650
  38.1163370  62.1937860  27.6025220  37.7578310  62.8591710  28.1898560
  37.8217930  61.3621410  27.9737840  41.3176490  62.6522100  30.4864770
  41.0176630  62.7979280  29.5892590  42.0887730  62.0927390  30.3938160
  51.7942010  61.6330920  14.7518510  51.7105730  62.0645140  13.9014950
  52.5136200  62.0929270  15.1845330  52.8716150  64.0898440  27.8288480
  52.1464340  64.6827220  27.6317870  53.3991610  64.0821980  27.0301850
  48.4015740  65.8158610  21.3272330  48.7539560  65.2186740  20.6673700
  47.5178070  65.4902840  21.4980580  44.4879020  66.5756300  18.7342740
  45.1750150  67.1225510  19.1150330  43.7011440  67.1197030  18.7692350
  36.6271420  62.1929120  14.2259820  37.4966270  62.4753920  14.5095740
  36.1361740  63.0064990  14.1108630  43.7906230  63.5802330  18.3468100
  44.2469010  64.3907580  18.5728290  43.4394440  63.2625470  19.1786590
  39.6918010  53.9239980  18.8190620  39.5632640  53.9157880  19.7675540
  38.8680030  54.2623070  18.4681630  51.2126640  67.3789640  14.0176990
  50.9864220  66.6620080  14.6101630  50.8222840  67.1302080  13.1798740
  36.6911940  55.6831100  28.2797320  35.9770460  55.8828020  28.8849930
  37.1106980  54.9070670  28.6512120  50.7942890  65.2961580  15.6791150
  50.5064590  65.7574270  16.4669030  51.5895060  64.8359350  15.9475370
  38.6117930  64.0102590  16.3541880  38.0045880  64.7501490  16.3637180
  39.0867280  64.1001950  15.5280080  48.1850720  58.1753410  26.0298770
  48.5531540  57.3548620  26.3578340  47.3248920  58.2355300  26.4454420
  51.5512750  57.1310350  16.8386330  50.9225910  57.2356020  16.1244560
  51.0564670  57.3507130  17.6280210  43.5196780  59.4096300  18.2544210
  42.8112930  59.8782640  18.6957820  43.8041260  58.7518310  18.8889400
  45.1452710  60.8293000  26.2536740  45.6437960  61.3038820  26.9188590
  45.2875660  59.9056520  26.4606770  47.5512210  56.1346960  19.6940000
  47.4279990  56.1533090  18.7449510  48.4996770  56.1825900  19.8138400
  41.7231800  57.7181380  15.6294920  42.5722330  58.1551530  15.5635110
  41.3563070  58.0301640  16.4566980  52.3519570  57.0460960  27.0965130
  51.8493170  57.7866360  27.4358940  53.1676230  57.4344960  26.7801920
  50.6441580  62.2894140  20.5426490  49.7031720  62.3044370  20.7174180
  50.9585650  61.5030100  20.9886790  40.6223220  63.9713740  14.1030450
  41.3886490  63.8595100  14.6655880  40.6997910  63.2751710  13.4507220
  39.3169980  61.4038810  14.7863340  39.3973570  60.4566320  14.8980740
  40.2089730  61.7345690  14.8924000  47.9607600  66.8460140  31.0258870
  47.3545760  66.8691740  30.2854620  47.6561710  66.1143180  31.5626120
  36.8440780  63.2253730  30.0219510  37.3479800  62.6461010  30.5935740
  36.1048200  63.5093960  30.5595880  43.7464400  65.9467920  13.5765800
  43.6415040  65.3320270  14.3027180  43.5788620  65.4233810  12.7928810
  43.8978720  64.6324720  29.5555030  43.1324390  65.2009720  29.4709700
  44.0794680  64.3400930  28.6623260  46.9867130  65.0087950  14.1807790
  46.4377230  65.4557250  14.8250530  47.6086390  64.5037200  14.7045460
  51.0402070  66.3630050  30.1130050  51.7811540  66.7005810  29.6097510
  50.2774750  66.5322110  29.5599820  38.8763860  61.3683320  30.9169580
  38.9169200  61.0697190  31.8254810  39.7309360  61.7690930  30.7577100
  42.6542250  63.9678870  16.0773090  43.0758670  63.8018740  16.9204480
  42.7793090  63.1579100  15.5828230  40.8169670  59.9475420  28.8844070
  40.2866130  59.4566370  28.2567410  41.4857740  60.3759620  28.3502000
  45.1669890  62.9916480  13.3250190  45.6875550  62.2765500  12.9591340
  45.8138290  63.6302350  13.6250700  49.7147730  64.4144880  28.6485260
  50.1288750  64.5689960  29.4975680  48.7798730  64.5400100  28.8111040
  50.1869900  61.7541040  30.6524410  50.7690670  60.9993360  30.5644890
  50.3631670  62.2848480  29.8755890  41.3041970  56.9137790  28.9641360
  41.2098840  56.2958540  28.2392230  40.7239360  57.6404080  28.7371270
  44.0703410  55.4711030  25.9968750  43.6220710  55.4935290  25.1514300
  43.4368610  55.0730050  26.5939050  44.4762960  64.3665360  26.6181190
  44.8951070  65.2098090  26.4457430  43.5571590  64.5037400  26.3887970
  46.8126860  62.0981540  28.0019030  46.9323070  61.5022680  28.7413870
  47.6720860  62.1351230  27.5820330  49.1514760  62.6518730  26.5781540
  48.6249980  63.1761350  25.9746680  49.4946100  63.2846120  27.2091270
  41.5501150  60.0412100  13.0231250  41.3490210  59.1779460  13.3844590
  41.3793200  59.9545460  12.0852850  43.5795630  58.6402890  29.2594850
  44.1695320  58.3318740  29.9472670  42.7615870  58.1682640  29.4154750
  48.3989060  58.2568700  29.4927870  47.7104580  57.5950240  29.4277860
  49.1195080  57.8106970  29.9376330  49.0289460  54.8520330  15.5518130
  49.3091750  54.0088230  15.9077550  48.2555190  55.0843440  16.0656880
  40.3483950  57.1412720  13.0109130  40.6509850  57.1480150  12.1028280
  41.0878540  56.7910580  13.5076790  43.5668880  56.0847340  13.9965330
  43.2190880  55.4071330  13.4167780  43.7681650  55.6236850  14.8108720
  39.3714080  66.4455140  13.8438930  39.8088950  66.9884810  14.4996510
  39.8561810  65.6202090  13.8535270  53.4070180  64.0897060  16.1622040
  54.1689090  64.6593710  16.2681730  53.4224550  63.5224260  16.9330350
  36.9074520  62.6134990  20.3929700  36.2523360  62.3446630  19.7489400
  37.7452470  62.5039470  19.9431680  54.4130150  64.9447160  21.0063970
  54.7838980  64.1614480  20.5999940  55.0532080  65.6336260  20.8281270
  51.3963910  66.3283740  26.4194290  50.5823750  66.7580900  26.6820080
  51.8038110  66.9402150  25.8063340  53.4589350  64.3831430  13.3194560
  53.7338190  65.2910310  13.1913780  53.2700090  64.3193960  14.2556550
  49.8564960  57.4076280  14.6148190  50.2749840  57.2207260  13.7744850
  49.5501020  56.5555330  14.9251120  53.3554690  62.3200420  18.3123990
  52.9798290  61.5528350  17.8805280  52.6257810  62.7023120  18.7998920
  37.9450450  62.9987560  24.9333040  38.3123490  62.9114960  25.8129060
  37.3761270  62.2354110  24.8339900  52.7454310  61.4671940  27.9463510
  52.5140400  61.2384690  27.0461460  53.0058860  62.3871490  27.9008400
  37.4966450  59.9096650  28.8391460  36.6022500  59.8763410  29.1785170
  38.0364000  60.1083440  29.6042710  51.1842380  56.6928370  30.7243210
  52.0612560  56.7011770  31.1077210  51.1963220  55.9559210  30.1135560
  36.1212600  59.8233920  16.3355030  35.2176680  60.0864120  16.1606690
  36.6053220  60.0945090  15.5554990  52.6305650  60.5457910  21.6131230
  53.1543130  60.0520560  20.9821400  53.2165070  60.6808270  22.3578800
  52.8095370  60.6297780  25.1350780  51.8598080  60.5961320  25.2495770
  52.9908380  61.5397890  24.9000550  38.6639810  58.8799460  14.2449410
  39.3731510  58.4582680  13.7596690  37.9479750  58.9474690  13.6132760
  38.3113970  54.9338790  13.2852060  39.0342100  55.4747730  13.6033280
  38.5838490  54.6602210  12.4093600  52.1205620  59.8031260  17.5523640
  52.6164740  59.5702130  18.3372520  51.9221690  58.9643100  17.1361280
  38.0006160  54.1844980  23.1874680  38.6482350  53.6342360  22.7469840
  38.4208000  54.4388130  24.0090490  53.5492780  58.4392210  20.0861320
  53.4392060  58.2848250  21.0243590  54.3100370  57.9113150  19.8436730
  51.8958500  54.3786340  26.5444320  52.5330720  54.9920480  26.9103510
  52.0433390  54.4147000  25.5993550  54.4383050  56.2700130  13.3267460
  55.3632360  56.1381310  13.1185750  54.4158840  56.3492950  14.2803910
  54.5121540  57.0410790  15.9524170  53.7173040  56.9755910  16.4817080
  54.7164820  57.9761430  15.9409520  37.7538160  54.3400650  25.9300000
  37.4052980  54.7964470  26.6958180  37.4225860  53.4457780  26.0122430
  45.2662980  55.5312530  29.4519420  45.2051870  56.1234360  30.2014830
  46.2063360  55.4238490  29.3069680  47.9037540  55.1882590  29.0911710
  48.5177950  55.5061880  28.4292790  48.4487100  54.7031180  29.7107570
  38.4258800  53.8676850  29.2050770  38.9741790  53.6864900  28.4416880
  38.4914110  53.0770960  29.7407080  48.6445580  53.7514730  25.4181000
  47.7705420  54.0849840  25.2153930  48.5356330  53.2787910  26.2432870
  49.5517560  55.9585600  26.8022720  49.2230920  55.1437360  26.4224450
  50.4999860  55.9155410  26.6788410  46.3920400  54.6684570  24.3573910
  45.6092190  55.1430070  24.6370670  46.0983330  53.7639400  24.2487090
  50.9441470  55.3707670  22.4023000  51.3849560  55.3152770  21.5544600
  50.6749060  56.2865680  22.4733180  52.8080040  55.0022910  20.4131820
  52.7468440  54.0584130  20.2662840  53.5872070  55.1103000  20.9585280
  37.7360810  54.9732050  16.8787630  38.4940170  55.0860930  16.3051660
  37.2737980  55.8101250  16.8331060  44.2774620  57.0871320  19.8689940
  43.4649130  56.7128210  19.5285820  44.7816260  56.3316400  20.1711130
  48.7799600  53.7513770  21.1073010  49.3828970  54.3233980  21.5821530
  48.0392590  54.3153210  20.8846910  51.9234200  54.1535330  16.3813290
  52.1184830  55.0518780  16.6480720  51.1364070  53.9222410  16.8746240
  40.1085960  55.4996100  15.4189600  40.6378720  54.7125900  15.2897550
  40.7414280  56.1787290  15.6525130  42.3023800  55.2371240  18.4734990
  41.6726540  54.5358550  18.6405120  41.7628940  55.9975370  18.2568150
  42.4279360  54.5155220  30.9087480  42.1463630  55.0188820  30.1448300
  42.8099060  53.7176970  30.5429610  49.0294820  53.9308800  31.4867950
  48.9160270  54.2503410  32.3819470  49.8464560  54.3321310  31.1905230
  46.0671010  63.7280290   3.7311960  45.2913110  63.2480730   4.0210530
  46.7183940  63.0485940   3.5568120  40.0836840  64.0400100   4.6087720
  39.2521720  63.7848810   5.0084230  40.6917820  64.1110870   5.3445640
  36.4561800  61.6007640   4.2769810  37.0277910  60.8329840   4.2773450
  36.4563340  61.8996400   3.3676420  45.5080000  66.4037480   3.7382120
  45.4388280  65.4627420   3.5771250  46.2699860  66.4938890   4.3104690
  37.6986670  57.0092000   6.0638740  37.5189510  56.1117750   6.3441500
  37.2966750  57.5563870   6.7385690  46.5385170  59.2107860   3.9651050
  46.9149990  58.3379740   3.8524720  46.4404680  59.5466560   3.0741490
  38.3173340  59.5052500   4.6721080  38.9983450  59.7690870   5.2908480
  38.0021390  58.6653370   5.0059090  42.5097910  60.5519860   3.7593670
  43.0176130  61.0500830   4.3998690  43.0411150  59.7755060   3.5833030
  54.6108840  58.7225050   7.4623020  53.9061010  59.1106760   6.9438130
  54.8766760  59.4175340   8.0643950  40.7934010  55.1918420   8.0257090
  40.7952450  55.7090810   7.2202990  39.9638320  54.7148600   8.0027020
  42.0436860  64.8313600   6.2030590  41.7106240  65.4582520   6.8451660
  42.2203540  65.3575480   5.4232260  50.5570770  58.6458680   3.6706930
  49.8526340  58.9343570   4.2510040  50.9182930  59.4558790   3.3106490
  40.4749340  56.9028380   6.0327540  40.8166150  57.7470430   5.7381410
  39.5365150  57.0512120   6.1492880  53.6257690  58.0913470   4.0616140
  52.6782600  58.1252450   4.1931570  53.9507680  58.9052420   4.4465500
  49.1077730  65.0107780   5.9762200  49.5246520  64.7967890   5.1415660
  49.8317550  65.2680570   6.5470820  53.0539830  63.4095000   6.0678440
  52.2258460  63.4788090   5.5928570  53.6490310  63.9949310   5.5994270
  50.0181840  60.1964320   7.0133310  49.6053020  61.0218030   7.2673300
  49.2857790  59.6109360   6.8209670  42.6196330  66.6691780   4.0391190
  42.3224620  66.0637250   3.3598970  43.5696150  66.7069090   3.9280550
  40.8643250  59.7567430   5.6551020  41.4157840  59.8662770   4.8804270
  41.3786760  60.1305030   6.3706250  41.7114760  66.4073470  10.6898990
  40.8143290  66.6313440  10.9372390  41.7367630  66.5308410   9.7410390
  40.5385980  63.2786790   9.2656360  40.3993750  64.1509590   9.6343760
  39.6567340  62.9359600   9.1204300  36.4904630  65.0484340   5.1827270
  36.5685050  65.1833110   4.2382990  37.1046310  64.3400230   5.3755390
  53.6914400  67.1948440   9.9305690  53.8177460  66.9560320   9.0122870
  53.7335780  66.3632980  10.4027770  53.5438410  59.2480900  10.8955430
  52.9282680  59.7560570  10.3670890  53.2234830  58.3479230  10.8381370
  36.5464150  66.0898510   7.7221730  36.7095190  65.6203870   6.9041100
  37.0116600  65.5822070   8.3870570  41.3182920  55.2204270   2.7582300
  40.8751070  56.0013810   2.4266820  41.8767910  55.5434160   3.4653240
  45.6052730  58.0872790   8.3617620  45.1432100  58.2955810   9.1737560
  45.2030840  57.2732140   8.0588290  50.6057240  59.3081740   9.4914280
  49.7550830  59.0087490   9.8123350  50.4459030  59.5523750   8.5798100
  47.7006950  60.8083490  11.5913070  48.0260360  59.9747240  11.2515300
  48.4887280  61.3312010  11.7391400  43.3558820  55.7651600   4.6171900
  43.6531150  56.6714430   4.5363920  43.9044380  55.2770380   4.0031470
  43.5496350  61.2423420  11.1523820  43.4539950  60.3018150  11.0024220
  44.3928330  61.4638490  10.7571890  38.6806890  57.6537090   9.3057600
  38.2870280  58.5012300   9.5130380  37.9925290  57.0163460   9.4966240
  45.2551940  57.7372060  12.3754340  44.5650260  57.5444260  13.0100430
  45.9984240  58.0206700  12.9078640  35.9823940  55.5765550   3.3387680
  35.6936990  56.1468410   4.0512660  36.7269700  55.0970000   3.7018910
  47.5314910  61.5770500   5.2108260  46.7996030  62.0857310   5.5598360
  47.1339250  60.7600480   4.9097040  43.9692300  58.2524700   3.6160750
  43.9728360  57.8114650   2.7665290  44.8643420  58.5742030   3.7232570
  39.8194680  58.1351190   2.5754960  39.4794730  58.6126420   3.3322010
  39.0572000  57.6816310   2.2156060  47.9940820  57.0304180   4.6231200
  48.0113560  57.4812830   5.4673050  47.7456400  56.1309820   4.8364640
  51.4211570  54.4436360  10.4617580  51.7457340  53.7126020  10.9875560
  51.4568080  54.1250000   9.5598570  38.1203130  65.4649940   9.8817540
  37.7357920  64.8243610  10.4800500  38.4315320  66.1686060  10.4512270
  44.2700270  62.3126480   5.3626160  44.6370400  61.8385050   6.1087500
  44.0805330  63.1868050   5.7034500  42.0599640  61.3535120   7.6810370
  41.7556710  62.2327100   7.9060730  43.0146100  61.4134910   7.7167810
  51.3469410  64.5561470   4.0703610  52.0668530  65.0516760   3.6799720
  51.1451230  63.8779360   3.4257480  46.7288210  64.6270530   9.9572610
  46.6625520  63.7066200   9.7030200  46.0993350  64.7245970  10.6717250
  40.6318830  65.2276490   1.9156030  41.1497500  64.4244750   1.8612920
  40.1802850  65.1655630   2.7572860  38.1163370  62.1937860   8.8281730
  37.7578310  62.8591710   9.4155070  37.8217930  61.3621410   9.1994350
  41.3176490  62.6522100  11.7121280  41.0176630  62.7979280  10.8149100
  42.0887730  62.0927390  11.6194670  52.8716150  64.0898440   9.0544990
  52.1464340  64.6827220   8.8574380  53.3991610  64.0821980   8.2558360
  48.4015740  65.8158610   2.5528840  48.7539560  65.2186740   1.8930210
  47.5178070  65.4902840   2.7237090  36.6911940  55.6831100   9.5053830
  35.9770460  55.8828020  10.1106440  37.1106980  54.9070670   9.8768630
  48.1850720  58.1753410   7.2555280  48.5531540  57.3548620   7.5834850
  47.3248920  58.2355300   7.6710930  45.1452710  60.8293000   7.4793250
  45.6437960  61.3038820   8.1445100  45.2875660  59.9056520   7.6863280
  52.3519570  57.0460960   8.3221640  51.8493170  57.7866360   8.6615450
  53.1676230  57.4344960   8.0058430  50.6441580  62.2894140   1.7683000
  49.7031720  62.3044370   1.9430690  50.9585650  61.5030100   2.2143300
  47.9607600  66.8460140  12.2515380  47.3545760  66.8691740  11.5111130
  47.6561710  66.1143180  12.7882630  36.8440780  63.2253730  11.2476020
  37.3479800  62.6461010  11.8192250  36.1048200  63.5093960  11.7852390
  43.8978720  64.6324720  10.7811540  43.1324390  65.2009720  10.6966210
  44.0794680  64.3400930   9.8879770  51.0402070  66.3630050  11.3386560
  51.7811540  66.7005810  10.8354020  50.2774750  66.5322110  10.7856330
  38.8763860  61.3683320  12.1426090  38.9169200  61.0697190  13.0511320
  39.7309360  61.7690930  11.9833610  40.8169670  59.9475420  10.1100580
  40.2866130  59.4566370   9.4823920  41.4857740  60.3759620   9.5758510
  49.7147730  64.4144880   9.8741770  50.1288750  64.5689960  10.7232190
  48.7798730  64.5400100  10.0367550  50.1869900  61.7541040  11.8780920
  50.7690670  60.9993360  11.7901400  50.3631670  62.2848480  11.1012400
  41.3041970  56.9137790  10.1897870  41.2098840  56.2958540   9.4648740
  40.7239360  57.6404080   9.9627780  44.0703410  55.4711030   7.2225260
  43.6220710  55.4935290   6.3770810  43.4368610  55.0730050   7.8195560
  44.4762960  64.3665360   7.8437700  44.8951070  65.2098090   7.6713940
  43.5571590  64.5037400   7.6144480  46.8126860  62.0981540   9.2275540
  46.9323070  61.5022680   9.9670380  47.6720860  62.1351230   8.8076840
  49.1514760  62.6518730   7.8038050  48.6249980  63.1761350   7.2003190
  49.4946100  63.2846120   8.4347780  43.5795630  58.6402890  10.4851360
  44.1695320  58.3318740  11.1729180  42.7615870  58.1682640  10.6411260
  48.3989060  58.2568700  10.7184380  47.7104580  57.5950240  10.6534370
  49.1195080  57.8106970  11.1632840  54.4130150  64.9447160   2.2320480
  54.7838980  64.1614480   1.8256450  55.0532080  65.6336260   2.0537780
  51.3963910  66.3283740   7.6450800  50.5823750  66.7580900   7.9076590
  51.8038110  66.9402150   7.0319850  37.9450450  62.9987560   6.1589550
  38.3123490  62.9114960   7.0385570  37.3761270  62.2354110   6.0596410
  52.7454310  61.4671940   9.1720020  52.5140400  61.2384690   8.2717970
  53.0058860  62.3871490   9.1264910  37.4966450  59.9096650  10.0647970
  36.6022500  59.8763410  10.4041680  38.0364000  60.1083440  10.8299220
  51.1842380  56.6928370  11.9499720  52.0612560  56.7011770  12.3333720
  51.1963220  55.9559210  11.3392070  52.6305650  60.5457910   2.8387740
  53.1543130  60.0520560   2.2077910  53.2165070  60.6808270   3.5835310
  52.8095370  60.6297780   6.3607290  51.8598080  60.5961320   6.4752280
  52.9908380  61.5397890   6.1257060  38.0006160  54.1844980   4.4131190
  38.6482350  53.6342360   3.9726350  38.4208000  54.4388130   5.2347000
  51.8958500  54.3786340   7.7700830  52.5330720  54.9920480   8.1360020
  52.0433390  54.4147000   6.8250060  37.7538160  54.3400650   7.1556510
  37.4052980  54.7964470   7.9214690  37.4225860  53.4457780   7.2378940
  45.2662980  55.5312530  10.6775930  45.2051870  56.1234360  11.4271340
  46.2063360  55.4238490  10.5326190  47.9037540  55.1882590  10.3168220
  48.5177950  55.5061880   9.6549300  48.4487100  54.7031180  10.9364080
  38.4258800  53.8676850  10.4307280  38.9741790  53.6864900   9.6673390
  38.4914110  53.0770960  10.9663590  48.6445580  53.7514730   6.6437510
  47.7705420  54.0849840   6.4410440  48.5356330  53.2787910   7.4689380
  49.5517560  55.9585600   8.0279230  49.2230920  55.1437360   7.6480960
  50.4999860  55.9155410   7.9044920  46.3920400  54.6684570   5.5830420
  45.6092190  55.1430070   5.8627180  46.0983330  53.7639400   5.4743600
  50.9441470  55.3707670   3.6279510  51.3849560  55.3152770   2.7801110
  50.6749060  56.2865680   3.6989690  48.7799600  53.7513770   2.3329520
  49.3828970  54.3233980   2.8078040  48.0392590  54.3153210   2.1103420
  42.4279360  54.5155220  12.1343990  42.1463630  55.0188820  11.3704810
  42.8099060  53.7176970  11.7686120  49.0294820  53.9308800  12.7124460
  48.9160270  54.2503410  13.6075980  49.8464560  54.3321310  12.4161740
  47.9352970  43.1757780  58.1733160  47.8547020  42.2612390  57.9024870
  47.5217390  43.6724850  57.4672870  46.0671010  44.9536800  60.0542430
  45.2913110  44.4737240  60.3441000  46.7183940  44.2742450  59.8798590
  50.0878440  49.3596990  58.8341560  49.6259970  48.5884230  59.1628730
  50.9003990  49.3863060  59.3394010  40.0638100  49.2996700  61.1276210
  40.3666140  48.4094440  60.9486430  40.8081690  49.8566920  60.8998460
  38.4928790  40.2258500  54.7160580  37.6045490  40.5674470  54.6140460
  38.7769980  40.0258820  53.8241410  36.4561800  42.8264150  60.6000280
  37.0277910  42.0586350  60.6003920  36.4563340  43.1252910  59.6906890
  46.3141750  51.6455000  58.4545550  45.6953190  52.1012500  57.8839990
  47.1693530  51.8006460  58.0535250  45.5080000  47.6293990  60.0612590
  45.4388280  46.6883930  59.9001720  46.2699860  47.7195400  60.6335160
  46.5385170  40.4364370  60.2881520  46.9149990  39.5636250  60.1755190
  46.4404680  40.7723070  59.3971960  40.6690180  38.8090000  55.7498960
  40.7756930  39.7093730  56.0567720  39.7582540  38.7607970  55.4593610
  50.3209290  37.9314810  57.2209860  51.1418910  37.4411380  57.2635340
  50.3543370  38.5212470  57.9741700  42.5097910  41.7776370  60.0824140
  43.0176130  42.2757340  60.7229160  43.0411150  41.0011570  59.9063500
  47.1805100  46.5294240  55.8477460  46.5622370  46.9943690  55.2840180
  47.6928350  47.2221720  56.2646970  50.5570770  39.8715190  59.9937400
  49.8526340  40.1600080  60.5740510  50.9182930  40.6815300  59.6336960
  36.5488300  47.2150770  53.2217090  36.1716280  47.7037870  52.4901990
  36.8061370  47.8876050  53.8523620  53.6257690  39.3169980  60.3846610
  52.6782600  39.3508960  60.5162040  53.9507680  40.1308930  60.7695970
  44.1577230  35.6167160  58.6802600  44.4652210  35.0614050  57.9638100
  43.2277930  35.7511620  58.4975590  49.7092290  51.3334450  60.9710060
  49.7219450  50.9296740  60.1032320  49.1567510  52.1081740  60.8671490
  51.0037710  48.0550670  56.0600230  50.8934040  47.1125000  56.1849650
  51.0005960  48.4166310  56.9462990  46.5457990  43.6815990  55.4162720
  45.6187270  43.6153370  55.6451190  46.6982810  44.6196120  55.3017960
  46.5327070  39.9532990  52.4129880  45.5930740  40.1146950  52.4982340
  46.8510330  40.6718670  51.8665870  50.5755280  45.2436290  55.9197970
  49.9567700  44.9055840  55.2724270  50.5579730  44.5996050  56.6277160
  42.1514630  44.2080730  58.1982450  41.7471630  43.4957980  57.7028350
  42.2377750  43.8633970  59.0870490  42.6196330  47.8948290  60.3621660
  42.3224620  47.2893760  59.6829440  43.5696150  47.9325600  60.2511020
  48.7519980  44.4823100  52.9270720  49.1913260  43.6445530  52.7808540
  49.4648400  45.1152500  53.0134860  46.8615360  49.4219170  56.8951960
  47.3011270  50.1643500  56.4807350  46.8002250  49.6645740  57.8190920
  52.3337120  35.7365910  51.2411760  52.0209780  35.8292740  52.1410830
  53.0949590  36.3146940  51.1909190  38.8519260  43.1025710  55.6989100
  38.7316860  43.8287800  55.0870370  38.5420150  42.3328620  55.2217010
  37.7352260  47.9741040  57.9163920  37.3280340  48.1155630  57.0617520
  38.6265270  47.6901200  57.7135130  49.5285540  52.4088290  54.2514970
  49.3686680  52.1191230  55.1496800  49.3632250  51.6328420  53.7160200
  42.0073920  52.1886820  56.0286590  41.8316400  51.2722360  55.8154390
  41.1529660  52.5474110  56.2684390  49.2311670  49.9175850  52.8112970
  48.5376830  49.9153140  52.1515250  49.9734530  49.4935170  52.3807140
  48.7961600  51.5438560  56.8861460  49.2518550  50.7627940  57.2000080
  49.1354120  52.2545380  57.4302640  41.3182920  36.4460780  59.0812770
  40.8751070  37.2270320  58.7497290  41.8767910  36.7690670  59.7883710
  44.4341740  36.0671480  53.9618600  43.8095920  36.0631350  54.6871910
  44.3471860  35.2002440  53.5654570  43.3558820  36.9908110  60.9402370
  43.6531150  37.8970940  60.8594390  43.9044380  36.5026890  60.3261940
  41.1097140  41.5694350  56.8094020  40.8838060  41.3531520  57.7140640
  40.3289670  42.0022810  56.4639990  48.3394900  41.5757720  55.4084670
  47.7403790  42.2993520  55.2248290  48.8874510  41.5134500  54.6261120
  46.9459770  40.2121260  57.4387950  47.3389340  40.5293460  56.6256640
  47.3076620  39.3333140  57.5532470  35.9823940  36.8022060  59.6618150
  35.6936990  37.3724920  60.3743130  36.7269700  36.3226510  60.0249380
  36.1694170  40.7442180  50.8720870  36.0868840  41.6872940  51.0135860
  35.8177230  40.6017090  49.9933220  43.9692300  39.4781210  59.9391220
  43.9728360  39.0371160  59.0895760  44.8643420  39.7998540  60.0463040
  39.8194680  39.3607700  58.8985430  39.4794730  39.8382930  59.6552480
  39.0572000  38.9072820  58.5386530  44.0312450  40.4793290  52.9297980
  44.1525270  40.4379770  53.8783800  43.6460960  41.3417440  52.7744710
  43.0433950  42.7894430  52.3281280  42.4750850  42.3412680  51.7017190
  43.7522950  43.1487210  51.7946430  37.1340760  38.2826680  57.8150100
  36.8487680  37.9182350  58.6528720  37.0719620  37.5507140  57.2013240
  40.5881430  46.7852620  54.6007690  39.8143690  46.2450240  54.4406410
  41.3176060  46.2659230  54.2625450  51.3469410  45.7817980  60.3934080
  52.0668530  46.2773270  60.0030190  51.1451230  45.1035870  59.7487950
  46.8079350  37.1755940  54.5363470  45.9943960  36.6769110  54.4608780
  46.6141300  38.0154190  54.1199820  49.5227740  41.5475590  52.8325630
  50.4107360  41.8592820  52.6576970  49.4932830  40.6747840  52.4406210
  40.6318830  46.4533000  58.2386500  41.1497500  45.6501260  58.1843390
  40.1802850  46.3912140  59.0803330  45.5188330  47.7199280  53.5113800
  45.8604030  48.4641510  53.0157120  44.6901040  48.0330400  53.8738630
  51.7942010  42.8587430  52.3005490  51.7105730  43.2901650  51.4501930
  52.5136200  43.3185780  52.7332310  52.8229260  49.7129690  55.0287620
  52.1805420  49.0585310  55.3031340  52.4359920  50.1184780  54.2528290
  48.4015740  47.0415120  58.8759310  48.7539560  46.4443250  58.2160680
  47.5178070  46.7159350  59.0467560  44.4879020  47.8012810  56.2829720
  45.1750150  48.3482020  56.6637310  43.7011440  48.3453540  56.3179330
  36.6271420  43.4185630  51.7746800  37.4966270  43.7010430  52.0582720
  36.1361740  44.2321500  51.6595610  43.7906230  44.8058840  55.8955080
  44.2469010  45.6164090  56.1215270  43.4394440  44.4881980  56.7273570
  39.6918010  35.1496490  56.3677600  39.5632640  35.1414390  57.3162520
  38.8680030  35.4879580  56.0168610  51.2126640  48.6046150  51.5663970
  50.9864220  47.8876590  52.1588610  50.8222840  48.3558590  50.7285720
  36.9942670  52.6313010  52.3408430  37.3540310  53.2302350  51.6865700
  36.8535010  53.1772900  53.1143460  50.7942890  46.5218090  53.2278130
  50.5064590  46.9830780  54.0156010  51.5895060  46.0615860  53.4962350
  43.0111290  50.0144210  53.1582100  43.0021390  50.7473900  52.5426610
  42.0909650  49.7675790  53.2509060  38.6117930  45.2359100  53.9028860
  38.0045880  45.9758000  53.9124160  39.0867280  45.3258460  53.0767060
  51.5512750  38.3566860  54.3873310  50.9225910  38.4612530  53.6731540
  51.0564670  38.5763640  55.1767190  45.9970890  50.0772450  51.8207290
  46.0982870  49.8736440  50.8909270  45.0972630  49.8230730  52.0255070
  43.5196780  40.6352810  55.8031190  42.8112930  41.1039150  56.2444800
  43.8041260  39.9774820  56.4376380  47.5512210  37.3603470  57.2426980
  47.4279990  37.3789600  56.2936490  48.4996770  37.4082410  57.3625380
  44.6389000  52.5958770  56.5154960  44.8930500  52.5580160  55.5934330
  43.6901480  52.4692100  56.5083210  41.7231800  38.9437890  53.1781900
  42.5722330  39.3808040  53.1122090  41.3563070  39.2558150  54.0053960
  50.6441580  43.5150650  58.0913470  49.7031720  43.5300880  58.2661160
  50.9585650  42.7286610  58.5373770  40.6223220  45.1970250  51.6517430
  41.3886490  45.0851610  52.2142860  40.6997910  44.5008220  50.9994200
  39.3169980  42.6295320  52.3350320  39.3973570  41.6822830  52.4467720
  40.2089730  42.9602200  52.4410980  52.6467160  50.6859500  59.7667730
  52.7714580  51.5090670  60.2391540  53.5132720  50.4750230  59.4191880
  40.1184690  52.7790710  59.4384860  40.8547170  52.2306170  59.7093430
  40.5025610  53.6446720  59.2990850  37.0030170  48.8464280  55.3126370
  36.0769950  49.0885420  55.3031780  37.4686600  49.6738540  55.1911120
  43.2287000  51.9521020  51.2610430  44.0215610  52.2409850  50.8092220
  42.7091350  51.5213190  50.5822910  52.2817170  51.1791150  52.6847170
  51.9958680  50.7656290  51.8701350  52.0836720  52.1078860  52.5647690
  43.7464400  47.1724430  51.1252780  43.6415040  46.5576780  51.8514160
  43.5788620  46.6490320  50.3415790  46.9867130  46.2344460  51.7294770
  46.4377230  46.6813760  52.3737510  47.6086390  45.7293710  52.2532440
  42.6542250  45.1935380  53.6260070  43.0758670  45.0275250  54.4691460
  42.7793090  44.3835610  53.1315210  45.1669890  44.2172990  50.8737170
  45.6875550  43.5022010  50.5078320  45.8138290  44.8558860  51.1737680
  41.5501150  41.2668610  50.5718230  41.3490210  40.4035970  50.9331570
  41.3793200  41.1801970  49.6339830  49.0289460  36.0776840  53.1005110
  49.3091750  35.2344740  53.4564530  48.2555190  36.3099950  53.6143860
  40.3483950  38.3669230  50.5596110  40.6509850  38.3736660  49.6515260
  41.0878540  38.0167090  51.0563770  43.5668880  37.3103850  51.5452310
  43.2190880  36.6327840  50.9654760  43.7681650  36.8493360  52.3595700
  45.7317920  52.2984600  53.1638910  46.6268710  52.6369570  53.1857670
  45.7635550  51.5764010  52.5363190  39.3714080  47.6711650  51.3925910
  39.8088950  48.2141320  52.0483490  39.8561810  46.8458600  51.4022250
  36.5859880  50.4600680  58.8446170  36.9162890  49.5921740  58.6124810
  37.0150880  50.6659200  59.6751130  41.1821800  48.7909690  56.5048140
  40.8817340  48.6674660  57.4052050  41.0759290  47.9318280  56.0963870
  53.9513720  48.5706090  51.2074820  53.1206680  48.6382740  51.6782050
  54.1285550  49.4610210  50.9041680  53.4070180  45.3153570  53.7109020
  54.1689090  45.8850220  53.8168710  53.4224550  44.7480770  54.4817330
  36.9074520  43.8391500  57.9416680  36.2523360  43.5703140  57.2976380
  37.7452470  43.7295980  57.4918660  54.4130150  46.1703670  58.5550950
  54.7838980  45.3870990  58.1486920  55.0532080  46.8592770  58.3768250
  53.4589350  45.6087940  50.8681540  53.7338190  46.5166820  50.7400760
  53.2700090  45.5450470  51.8043530  49.8564960  38.6332790  52.1635170
  50.2749840  38.4463770  51.3231830  49.5501020  37.7811840  52.4738100
  53.3554690  43.5456930  55.8610970  52.9798290  42.7784860  55.4292260
  52.6257810  43.9279630  56.3485900  36.1212600  41.0490430  53.8842010
  35.2176680  41.3120630  53.7093670  36.6053220  41.3201600  53.1041970
  52.6305650  41.7714420  59.1618210  53.1543130  41.2777070  58.5308380
  53.2165070  41.9064780  59.9065780  38.6639810  40.1055970  51.7936390
  39.3731510  39.6839190  51.3083670  37.9479750  40.1731200  51.1619740
  38.3113970  36.1595300  50.8339040  39.0342100  36.7004240  51.1520260
  38.5838490  35.8858720  49.9580580  52.1205620  41.0287770  55.1010620
  52.6164740  40.7958640  55.8859500  51.9221690  40.1899610  54.6848260
  53.5492780  39.6648720  57.6348300  53.4392060  39.5104760  58.5730570
  54.3100370  39.1369660  57.3923710  54.4383050  37.4956640  50.8754440
  55.3632360  37.3637820  50.6672730  54.4158840  37.5749460  51.8290890
  54.5121540  38.2667300  53.5011150  53.7173040  38.2012420  54.0304060
  54.7164820  39.2017940  53.4896500  51.4539960  52.3058850  57.4949540
  52.0499030  51.9843420  56.8183960  51.7118110  51.8330670  58.2862810
  52.0052170  52.9554150  61.3247270  51.5455140  53.7069960  60.9505290
  51.3764630  52.2360620  61.2662070  42.4347890  51.2642390  60.4995400
  42.9512910  50.6529750  59.9743660  43.0845270  51.7671170  60.9906410
  50.9441470  36.5964180  59.9509980  51.3849560  36.5409280  59.1031580
  50.6749060  37.5122190  60.0220160  52.8080040  36.2279420  57.9618800
  52.7468440  35.2840640  57.8149820  53.5872070  36.3359510  58.5072260
  37.1132790  52.3671780  56.9242750  36.9454830  51.7342460  57.6224640
  36.2467300  52.5731180  56.5736940  37.7360810  36.1988560  54.4274610
  38.4940170  36.3117440  53.8538640  37.2737980  37.0357760  54.3818040
  44.2774620  38.3127830  57.4176920  43.4649130  37.9384720  57.0772800
  44.7816260  37.5572910  57.7198110  48.7799600  34.9770280  58.6559990
  49.3828970  35.5490490  59.1308510  48.0392590  35.5409720  58.4333890
  51.9234200  35.3791840  53.9300270  52.1184830  36.2775290  54.1967700
  51.1364070  35.1478920  54.4233220  38.7195490  51.0605010  54.3692890
  38.1943110  51.4413040  53.6654850  38.6440070  51.6855780  55.0902600
  40.1085960  36.7252610  52.9676580  40.6378720  35.9382410  52.8384530
  40.7414280  37.4043800  53.2012110  42.3023800  36.4627750  56.0221970
  41.6726540  35.7615060  56.1892100  41.7628940  37.2231880  55.8055130
  53.4760810  52.6192550  55.6906830  53.6513000  51.9330290  55.0467750
  52.7782380  53.1439600  55.2983500  41.3188460  53.0087390  53.2442140
  42.0507280  52.7246670  52.6966030  41.5782130  52.7700670  54.1341520
  40.4803250  49.1252120  53.2488470  39.8512130  49.5937220  53.7974300
  40.5951080  48.2801340  53.6834660  47.9352970  43.1757780  39.3989670
  47.8547020  42.2612390  39.1281380  47.5217390  43.6724850  38.6929380
  46.0671010  44.9536800  41.2798940  45.2913110  44.4737240  41.5697510
  46.7183940  44.2742450  41.1055100  40.0836840  45.2656610  42.1574700
  39.2521720  45.0105320  42.5571210  40.6917820  45.3367380  42.8932620
  50.0878440  49.3596990  40.0598070  49.6259970  48.5884230  40.3885240
  50.9003990  49.3863060  40.5650520  40.0638100  49.2996700  42.3532720
  40.3666140  48.4094440  42.1742940  40.8081690  49.8566920  42.1254970
  38.4928790  40.2258500  35.9417090  37.6045490  40.5674470  35.8396970
  38.7769980  40.0258820  35.0497920  36.4561800  42.8264150  41.8256790
  37.0277910  42.0586350  41.8260430  36.4563340  43.1252910  40.9163400
  46.3141750  51.6455000  39.6802060  45.6953190  52.1012500  39.1096500
  47.1693530  51.8006460  39.2791760  45.5080000  47.6293990  41.2869100
  45.4388280  46.6883930  41.1258230  46.2699860  47.7195400  41.8591670
  37.6986670  38.2348510  43.6125720  37.5189510  37.3374260  43.8928480
  37.2966750  38.7820380  44.2872670  46.5385170  40.4364370  41.5138030
  46.9149990  39.5636250  41.4011700  46.4404680  40.7723070  40.6228470
  40.6690180  38.8090000  36.9755470  40.7756930  39.7093730  37.2824230
  39.7582540  38.7607970  36.6850120  50.3209290  37.9314810  38.4466370
  51.1418910  37.4411380  38.4891850  50.3543370  38.5212470  39.1998210
  38.3173340  40.7309010  42.2208060  38.9983450  40.9947380  42.8395460
  38.0021390  39.8909880  42.5546070  42.5097910  41.7776370  41.3080650
  43.0176130  42.2757340  41.9485670  43.0411150  41.0011570  41.1320010
  54.6108840  39.9481560  45.0110000  53.9061010  40.3363270  44.4925110
  54.8766760  40.6431850  45.6130930  40.7934010  36.4174930  45.5744070
  40.7952450  36.9347320  44.7689970  39.9638320  35.9405110  45.5514000
  47.1805100  46.5294240  37.0733970  46.5622370  46.9943690  36.5096690
  47.6928350  47.2221720  37.4903480  42.0436860  46.0570110  43.7517570
  41.7106240  46.6839030  44.3938640  42.2203540  46.5831990  42.9719240
  50.5570770  39.8715190  41.2193910  49.8526340  40.1600080  41.7997020
  50.9182930  40.6815300  40.8593470  40.4749340  38.1284890  43.5814520
  40.8166150  38.9726940  43.2868390  39.5365150  38.2768630  43.6979860
  41.2555960  48.0250910  45.5666750  41.8729960  48.7001990  45.2851200
  40.3949080  48.4338890  45.4754250  36.5488300  47.2150770  34.4473600
  36.1716280  47.7037870  33.7158500  36.8061370  47.8876050  35.0780130
  52.1733550  49.4890320  43.4821390  51.4897070  50.1589430  43.4738060
  52.7127840  49.6870970  42.7166250  53.6257690  39.3169980  41.6103120
  52.6782600  39.3508960  41.7418550  53.9507680  40.1308930  41.9952480
  44.1577230  35.6167160  39.9059110  44.4652210  35.0614050  39.1894610
  43.2277930  35.7511620  39.7232100  49.7092290  51.3334450  42.1966570
  49.7219450  50.9296740  41.3288830  49.1567510  52.1081740  42.0928000
  51.0037710  48.0550670  37.2856740  50.8934040  47.1125000  37.4106160
  51.0005960  48.4166310  38.1719500  49.1077730  46.2364290  43.5249180
  49.5246520  46.0224400  42.6902640  49.8317550  46.4937080  44.0957800
  46.5457990  43.6815990  36.6419230  45.6187270  43.6153370  36.8707700
  46.6982810  44.6196120  36.5274470  46.5327070  39.9532990  33.6386390
  45.5930740  40.1146950  33.7238850  46.8510330  40.6718670  33.0922380
  53.0539830  44.6351510  43.6165420  52.2258460  44.7044600  43.1415550
  53.6490310  45.2205820  43.1481250  50.5755280  45.2436290  37.1454480
  49.9567700  44.9055840  36.4980780  50.5579730  44.5996050  37.8533670
  50.0181840  41.4220830  44.5620290  49.6053020  42.2474540  44.8160280
  49.2857790  40.8365870  44.3696650  42.1514630  44.2080730  39.4238960
  41.7471630  43.4957980  38.9284860  42.2377750  43.8633970  40.3127000
  42.6196330  47.8948290  41.5878170  42.3224620  47.2893760  40.9085950
  43.5696150  47.9325600  41.4767530  40.8643250  40.9823940  43.2038000
  41.4157840  41.0919280  42.4291250  41.3786760  41.3561540  43.9193230
  50.7081940  51.4680160  45.2501270  50.2312500  52.2752350  45.0573880
  50.0243730  50.8158490  45.4027480  41.7114760  47.6329980  48.2385970
  40.8143290  47.8569950  48.4859370  41.7367630  47.7564920  47.2897370
  48.7519980  44.4823100  34.1527230  49.1913260  43.6445530  34.0065050
  49.4648400  45.1152500  34.2391370  40.5385980  44.5043300  46.8143340
  40.3993750  45.3766100  47.1830740  39.6567340  44.1616110  46.6691280
  46.8615360  49.4219170  38.1208470  47.3011270  50.1643500  37.7063860
  46.8002250  49.6645740  39.0447430  42.3366330  50.4465000  49.0228490
  42.3081760  50.8507950  48.1556920  42.1731300  49.5175360  48.8600090
  52.3337120  35.7365910  32.4668270  52.0209780  35.8292740  33.3667340
  53.0949590  36.3146940  32.4165700  38.8519260  43.1025710  36.9245610
  38.7316860  43.8287800  36.3126880  38.5420150  42.3328620  36.4473520
  54.2881150  51.2292100  50.3192660  54.7640870  51.7074990  50.9981740
  54.9088310  51.1609590  49.5938160  36.4904630  46.2740850  42.7314250
  36.5685050  46.4089620  41.7869970  37.1046310  45.5656740  42.9242370
  37.7352260  47.9741040  39.1420430  37.3280340  48.1155630  38.2874030
  38.6265270  47.6901200  38.9391640  53.6914400  48.4204950  47.4792670
  53.8177460  48.1816830  46.5609850  53.7335780  47.5889490  47.9514750
  47.5531140  52.1232950  46.0487480  48.0675810  52.0340960  46.8509910
  46.7100220  52.4692650  46.3415390  49.5285540  52.4088290  35.4771480
  49.3686680  52.1191230  36.3753310  49.3632250  51.6328420  34.9416710
  42.0073920  52.1886820  37.2543100  41.8316400  51.2722360  37.0410900
  41.1529660  52.5474110  37.4940900  49.2311670  49.9175850  34.0369480
  48.5376830  49.9153140  33.3771760  49.9734530  49.4935170  33.6063650
  48.7961600  51.5438560  38.1117970  49.2518550  50.7627940  38.4256590
  49.1354120  52.2545380  38.6559150  53.5438410  40.4737410  48.4442410
  52.9282680  40.9817080  47.9157870  53.2234830  39.5735740  48.3868350
  36.5464150  47.3155020  45.2708710  36.7095190  46.8460380  44.4528080
  37.0116600  46.8078580  45.9357550  41.3182920  36.4460780  40.3069280
  40.8751070  37.2270320  39.9753800  41.8767910  36.7690670  41.0140220
  45.6052730  39.3129300  45.9104600  45.1432100  39.5212320  46.7224540
  45.2030840  38.4988650  45.6075270  50.6057240  40.5338250  47.0401260
  49.7550830  40.2344000  47.3610330  50.4459030  40.7780260  46.1285080
  47.7006950  42.0340000  49.1400050  48.0260360  41.2003750  48.8002280
  48.4887280  42.5568520  49.2878380  44.4341740  36.0671480  35.1875110
  43.8095920  36.0631350  35.9128420  44.3471860  35.2002440  34.7911080
  43.3558820  36.9908110  42.1658880  43.6531150  37.8970940  42.0850900
  43.9044380  36.5026890  41.5518450  41.1097140  41.5694350  38.0350530
  40.8838060  41.3531520  38.9397150  40.3289670  42.0022810  37.6896500
  48.3394900  41.5757720  36.6341180  47.7403790  42.2993520  36.4504800
  48.8874510  41.5134500  35.8517630  43.5496350  42.4679930  48.7010800
  43.4539950  41.5274660  48.5511200  44.3928330  42.6895000  48.3058870
  46.9459770  40.2121260  38.6644460  47.3389340  40.5293460  37.8513150
  47.3076620  39.3333140  38.7788980  38.6806890  38.8793600  46.8544580
  38.2870280  39.7268810  47.0617360  37.9925290  38.2419970  47.0453220
  45.2551940  38.9628570  49.9241320  44.5650260  38.7700770  50.5587410
  45.9984240  39.2463210  50.4565620  35.9823940  36.8022060  40.8874660
  35.6936990  37.3724920  41.5999640  36.7269700  36.3226510  41.2505890
  47.5314910  42.8027010  42.7595240  46.7996030  43.3113820  43.1085340
  47.1339250  41.9856990  42.4584020  43.9692300  39.4781210  41.1647730
  43.9728360  39.0371160  40.3152270  44.8643420  39.7998540  41.2719550
  39.8194680  39.3607700  40.1241940  39.4794730  39.8382930  40.8808990
  39.0572000  38.9072820  39.7643040  44.0312450  40.4793290  34.1554490
  44.1525270  40.4379770  35.1040310  43.6460960  41.3417440  34.0001220
  47.9940820  38.2560690  42.1718180  48.0113560  38.7069340  43.0160030
  47.7456400  37.3566330  42.3851620  43.0433950  42.7894430  33.5537790
  42.4750850  42.3412680  32.9273700  43.7522950  43.1487210  33.0202940
  51.4211570  35.6692870  48.0104560  51.7457340  34.9382530  48.5362540
  51.4568080  35.3506510  47.1085550  38.1203130  46.6906450  47.4304520
  37.7357920  46.0500120  48.0287480  38.4315320  47.3942570  47.9999250
  44.2700270  43.5382990  42.9113140  44.6370400  43.0641560  43.6574480
  44.0805330  44.4124560  43.2521480  37.1340760  38.2826680  39.0406610
  36.8487680  37.9182350  39.8785230  37.0719620  37.5507140  38.4269750
  42.0599640  42.5791630  45.2297350  41.7556710  43.4583610  45.4547710
  43.0146100  42.6391420  45.2654790  40.5881430  46.7852620  35.8264200
  39.8143690  46.2450240  35.6662920  41.3176060  46.2659230  35.4881960
  51.3469410  45.7817980  41.6190590  52.0668530  46.2773270  41.2286700
  51.1451230  45.1035870  40.9744460  46.8079350  37.1755940  35.7619980
  45.9943960  36.6769110  35.6865290  46.6141300  38.0154190  35.3456330
  46.7288210  45.8527040  47.5059590  46.6625520  44.9322710  47.2517180
  46.0993350  45.9502480  48.2204230  49.5227740  41.5475590  34.0582140
  50.4107360  41.8592820  33.8833480  49.4932830  40.6747840  33.6662720
  40.6318830  46.4533000  39.4643010  41.1497500  45.6501260  39.4099900
  40.1802850  46.3912140  40.3059840  45.5188330  47.7199280  34.7370310
  45.8604030  48.4641510  34.2413630  44.6901040  48.0330400  35.0995140
  38.1163370  43.4194370  46.3768710  37.7578310  44.0848220  46.9642050
  37.8217930  42.5877920  46.7481330  41.3176490  43.8778610  49.2608260
  41.0176630  44.0235790  48.3636080  42.0887730  43.3183900  49.1681650
  46.6604940  48.6747610  47.2563390  46.6749480  47.7428570  47.0382300
  45.9530040  48.7607370  47.8953160  51.7942010  42.8587430  33.5262000
  51.7105730  43.2901650  32.6758440  52.5136200  43.3185780  33.9588820
  52.8716150  45.3154950  46.6031970  52.1464340  45.9083730  46.4061360
  53.3991610  45.3078490  45.8045340  52.8229260  49.7129690  36.2544130
  52.1805420  49.0585310  36.5287850  52.4359920  50.1184780  35.4784800
  48.4015740  47.0415120  40.1015820  48.7539560  46.4443250  39.4417190
  47.5178070  46.7159350  40.2724070  44.4879020  47.8012810  37.5086230
  45.1750150  48.3482020  37.8893820  43.7011440  48.3453540  37.5435840
  36.6271420  43.4185630  33.0003310  37.4966270  43.7010430  33.2839230
  36.1361740  44.2321500  32.8852120  43.7906230  44.8058840  37.1211590
  44.2469010  45.6164090  37.3471780  43.4394440  44.4881980  37.9530080
  46.0938840  50.3165180  44.3503890  46.7381060  50.5224560  45.0277310
  46.4568280  49.5553580  43.8974740  39.6918010  35.1496490  37.5934110
  39.5632640  35.1414390  38.5419030  38.8680030  35.4879580  37.2425120
  47.3670920  48.3197530  43.0681340  48.0093150  47.6190690  43.1813510
  47.8920270  49.0995970  42.8878230  51.2126640  48.6046150  32.7920480
  50.9864220  47.8876590  33.3845120  50.8222840  48.3558590  31.9542230
  49.1408540  49.1192430  46.2717400  49.4764780  49.7059120  46.9495320
  48.2208880  48.9885140  46.5015190  36.9942670  52.6313010  33.5664940
  37.3540310  53.2302350  32.9122210  36.8535010  53.1772900  34.3399970
  36.6911940  36.9087610  47.0540810  35.9770460  37.1084530  47.6593420
  37.1106980  36.1327180  47.4255610  50.7942890  46.5218090  34.4534640
  50.5064590  46.9830780  35.2412520  51.5895060  46.0615860  34.7218860
  36.9784530  50.8967870  48.0407340  37.0875650  49.9562610  47.9002730
  36.3265090  51.1622620  47.3921070  44.9697120  49.1683760  49.4405460
  44.6493990  48.4493000  49.9851150  44.2955480  49.8438830  49.5141520
  43.0111290  50.0144210  34.3838610  43.0021390  50.7473900  33.7683120
  42.0909650  49.7675790  34.4765570  38.6117930  45.2359100  35.1285370
  38.0045880  45.9758000  35.1380670  39.0867280  45.3258460  34.3023570
  48.1850720  39.4009920  44.8042260  48.5531540  38.5805130  45.1321830
  47.3248920  39.4611810  45.2197910  51.5512750  38.3566860  35.6129820
  50.9225910  38.4612530  34.8988050  51.0564670  38.5763640  36.4023700
  45.9970890  50.0772450  33.0463800  46.0982870  49.8736440  32.1165780
  45.0972630  49.8230730  33.2511580  43.5196780  40.6352810  37.0287700
  42.8112930  41.1039150  37.4701310  43.8041260  39.9774820  37.6632890
  45.1452710  42.0549510  45.0280230  45.6437960  42.5295330  45.6932080
  45.2875660  41.1313030  45.2350260  47.5512210  37.3603470  38.4683490
  47.4279990  37.3789600  37.5193000  48.4996770  37.4082410  38.5881890
  44.6389000  52.5958770  37.7411470  44.8930500  52.5580160  36.8190840
  43.6901480  52.4692100  37.7339720  41.7231800  38.9437890  34.4038410
  42.5722330  39.3808040  34.3378600  41.3563070  39.2558150  35.2310470
  52.3519570  38.2717470  45.8708620  51.8493170  39.0122870  46.2102430
  53.1676230  38.6601470  45.5545410  50.6441580  43.5150650  39.3169980
  49.7031720  43.5300880  39.4917670  50.9585650  42.7286610  39.7630280
  40.6223220  45.1970250  32.8773940  41.3886490  45.0851610  33.4399370
  40.6997910  44.5008220  32.2250710  39.3169980  42.6295320  33.5606830
  39.3973570  41.6822830  33.6724230  40.2089730  42.9602200  33.6667490
  52.6467160  50.6859500  40.9924240  52.7714580  51.5090670  41.4648050
  53.5132720  50.4750230  40.6448390  40.1184690  52.7790710  40.6641370
  40.8547170  52.2306170  40.9349940  40.5025610  53.6446720  40.5247360
  37.0030170  48.8464280  36.5382880  36.0769950  49.0885420  36.5288290
  37.4686600  49.6738540  36.4167630  39.1242970  51.9636780  49.8526950
  39.9255700  52.2848830  50.2662350  38.6094790  51.6032360  50.5746860
  43.2287000  51.9521020  32.4866940  44.0215610  52.2409850  32.0348730
  42.7091350  51.5213190  31.8079420  47.9607600  48.0716650  49.8002360
  47.3545760  48.0948250  49.0598110  47.6561710  47.3399690  50.3369610
  49.3907970  51.7996940  48.4111770  50.3429720  51.7154960  48.3612010
  49.2436190  52.4638650  49.0845560  52.2817170  51.1791150  33.9103680
  51.9958680  50.7656290  33.0957860  52.0836720  52.1078860  33.7904200
  36.8440780  44.4510240  48.7963000  37.3479800  43.8717520  49.3679230
  36.1048200  44.7350470  49.3339370  43.7464400  47.1724430  32.3509290
  43.6415040  46.5576780  33.0770670  43.5788620  46.6490320  31.5672300
  43.8978720  45.8581230  48.3298520  43.1324390  46.4266230  48.2453190
  44.0794680  45.5657440  47.4366750  46.9867130  46.2344460  32.9551280
  46.4377230  46.6813760  33.5994020  47.6086390  45.7293710  33.4788950
  51.0402070  47.5886560  48.8873540  51.7811540  47.9262320  48.3841000
  50.2774750  47.7578620  48.3343310  38.8763860  42.5939830  49.6913070
  38.9169200  42.2953700  50.5998300  39.7309360  42.9947440  49.5320590
  42.6542250  45.1935380  34.8516580  43.0758670  45.0275250  35.6947970
  42.7793090  44.3835610  34.3571720  40.8169670  41.1731930  47.6587560
  40.2866130  40.6822880  47.0310900  41.4857740  41.6016130  47.1245490
  45.1669890  44.2172990  32.0993680  45.6875550  43.5022010  31.7334830
  45.8138290  44.8558860  32.3994190  49.7147730  45.6401390  47.4228750
  50.1288750  45.7946470  48.2719170  48.7798730  45.7656610  47.5854530
  50.1869900  42.9797550  49.4267900  50.7690670  42.2249870  49.3388380
  50.3631670  43.5104990  48.6499380  41.3041970  38.1394300  47.7384850
  41.2098840  37.5215050  47.0135720  40.7239360  38.8660590  47.5114760
  44.0703410  36.6967540  44.7712240  43.6220710  36.7191800  43.9257790
  43.4368610  36.2986560  45.3682540  44.4762960  45.5921870  45.3924680
  44.8951070  46.4354600  45.2200920  43.5571590  45.7293910  45.1631460
  46.8126860  43.3238050  46.7762520  46.9323070  42.7279190  47.5157360
  47.6720860  43.3607740  46.3563820  49.1514760  43.8775240  45.3525030
  48.6249980  44.4017860  44.7490170  49.4946100  44.5102630  45.9834760
  41.5501150  41.2668610  31.7974740  41.3490210  40.4035970  32.1588080
  41.3793200  41.1801970  30.8596340  42.3270380  51.8974880  46.5082410
  41.7891470  52.6220940  46.1891110  42.5804340  51.4205220  45.7179750
  43.5795630  39.8659400  48.0338340  44.1695320  39.5575250  48.7216160
  42.7615870  39.3939150  48.1898240  48.3989060  39.4825210  48.2671360
  47.7104580  38.8206750  48.2021350  49.1195080  39.0363480  48.7119820
  49.0289460  36.0776840  34.3261620  49.3091750  35.2344740  34.6821040
  48.2555190  36.3099950  34.8400370  45.1832590  53.1326090  46.7669060
  45.1091290  54.0361230  47.0741430  44.2811430  52.8137990  46.7391130
  43.5668880  37.3103850  32.7708820  43.2190880  36.6327840  32.1911270
  43.7681650  36.8493360  33.5852210  45.7317920  52.2984600  34.3895420
  46.6268710  52.6369570  34.4114180  45.7635550  51.5764010  33.7619700
  39.3714080  47.6711650  32.6182420  39.8088950  48.2141320  33.2740000
  39.8561810  46.8458600  32.6278760  36.5859880  50.4600680  40.0702680
  36.9162890  49.5921740  39.8381320  37.0150880  50.6659200  40.9007640
  41.1821800  48.7909690  37.7304650  40.8817340  48.6674660  38.6308560
  41.0759290  47.9318280  37.3220380  37.0750090  51.3271270  42.8084310
  36.6381080  51.5072070  43.6408460  37.6427770  52.0845890  42.6666030
  52.7112270  50.8288270  47.0961620  52.1114260  50.8880830  46.3525540
  52.8406170  49.8893250  47.2258470  53.9513720  48.5706090  32.4331330
  53.1206680  48.6382740  32.9038560  54.1285550  49.4610210  32.1298190
  53.4070180  45.3153570  34.9365530  54.1689090  45.8850220  35.0425220
  53.4224550  44.7480770  35.7073840  36.9074520  43.8391500  39.1673190
  36.2523360  43.5703140  38.5232890  37.7452470  43.7295980  38.7175170
  54.4130150  46.1703670  39.7807460  54.7838980  45.3870990  39.3743430
  55.0532080  46.8592770  39.6024760  51.3963910  47.5540250  45.1937780
  50.5823750  47.9837410  45.4563570  51.8038110  48.1658660  44.5806830
  53.4589350  45.6087940  32.0938050  53.7338190  46.5166820  31.9657270
  53.2700090  45.5450470  33.0300040  49.8564960  38.6332790  33.3891680
  50.2749840  38.4463770  32.5488340  49.5501020  37.7811840  33.6994610
  53.3554690  43.5456930  37.0867480  52.9798290  42.7784860  36.6548770
  52.6257810  43.9279630  37.5742410  37.9450450  44.2244070  43.7076530
  38.3123490  44.1371470  44.5872550  37.3761270  43.4610620  43.6083390
  52.7454310  42.6928450  46.7207000  52.5140400  42.4641200  45.8204950
  53.0058860  43.6128000  46.6751890  37.4966450  41.1353160  47.6134950
  36.6022500  41.1019920  47.9528660  38.0364000  41.3339950  48.3786200
  51.1842380  37.9184880  49.4986700  52.0612560  37.9268280  49.8820700
  51.1963220  37.1815720  48.8879050  36.1212600  41.0490430  35.1098520
  35.2176680  41.3120630  34.9350180  36.6053220  41.3201600  34.3298480
  52.6305650  41.7714420  40.3874720  53.1543130  41.2777070  39.7564890
  53.2165070  41.9064780  41.1322290  52.8095370  41.8554290  43.9094270
  51.8598080  41.8217830  44.0239260  52.9908380  42.7654400  43.6744040
  52.1205620  41.0287770  36.3267130  52.6164740  40.7958640  37.1116010
  51.9221690  40.1899610  35.9104770  38.0006160  35.4101490  41.9618170
  38.6482350  34.8598870  41.5213330  38.4208000  35.6644640  42.7833980
  53.5492780  39.6648720  38.8604810  53.4392060  39.5104760  39.7987080
  54.3100370  39.1369660  38.6180220  51.8958500  35.6042850  45.3187810
  52.5330720  36.2176990  45.6847000  52.0433390  35.6403510  44.3737040
  54.4383050  37.4956640  32.1010950  55.3632360  37.3637820  31.8929240
  54.4158840  37.5749460  33.0547400  54.5121540  38.2667300  34.7267660
  53.7173040  38.2012420  35.2560570  54.7164820  39.2017940  34.7153010
  51.4539960  52.3058850  38.7206050  52.0499030  51.9843420  38.0440470
  51.7118110  51.8330670  39.5119320  37.7538160  35.5657160  44.7043490
  37.4052980  36.0220980  45.4701670  37.4225860  34.6714290  44.7865920
  39.3602530  48.7376760  48.8696680  39.3172160  48.3669670  49.7511140
  39.4913540  49.6754330  49.0098500  43.0608560  50.2936350  44.4706400
  42.8199920  50.5610910  43.5836920  44.0011200  50.4642080  44.5257260
  45.2662980  36.7569040  48.2262910  45.2051870  37.3490870  48.9758320
  46.2063360  36.6495000  48.0813170  47.9037540  36.4139100  47.8655200
  48.5177950  36.7318390  47.2036280  48.4487100  35.9287690  48.4851060
  54.3212720  52.3130730  45.2717040  53.8271000  52.7099600  44.5544170
  53.7126010  51.6879940  45.6654320  38.4258800  35.0933360  47.9794260
  38.9741790  34.9121410  47.2160370  38.4914110  34.3027470  48.5150570
  39.1990560  51.6839010  45.9894460  38.6050880  51.5523710  46.7284500
  39.1914400  50.8477150  45.5236560  48.6445580  34.9771240  44.1924490
  47.7705420  35.3106350  43.9897420  48.5356330  34.5044420  45.0176360
  49.5517560  37.1842110  45.5766210  49.2230920  36.3693870  45.1967940
  50.4999860  37.1411920  45.4531900  52.0052170  52.9554150  42.5503780
  51.5455140  53.7069960  42.1761800  51.3764630  52.2360620  42.4918580
  38.8302790  49.0497390  44.9402500  38.1036850  48.4302680  44.8728450
  38.8911940  49.4438000  44.0700580  42.4347890  51.2642390  41.7251910
  42.9512910  50.6529750  41.2000170  43.0845270  51.7671170  42.2162920
  45.1743390  52.1550880  42.5520890  45.4621200  51.9005180  41.6753900
  45.6866610  51.6028240  43.1426460  46.3920400  35.8941080  43.1317400
  45.6092190  36.3686580  43.4114160  46.0983330  34.9895910  43.0230580
  50.9441470  36.5964180  41.1766490  51.3849560  36.5409280  40.3288090
  50.6749060  37.5122190  41.2476670  52.8080040  36.2279420  39.1875310
  52.7468440  35.2840640  39.0406330  53.5872070  36.3359510  39.7328770
  37.1132790  52.3671780  38.1499260  36.9454830  51.7342460  38.8481150
  36.2467300  52.5731180  37.7993450  37.7360810  36.1988560  35.6531120
  38.4940170  36.3117440  35.0795150  37.2737980  37.0357760  35.6074550
  44.2774620  38.3127830  38.6433430  43.4649130  37.9384720  38.3029310
  44.7816260  37.5572910  38.9454620  48.7799600  34.9770280  39.8816500
  49.3828970  35.5490490  40.3565020  48.0392590  35.5409720  39.6590400
  51.9234200  35.3791840  35.1556780  52.1184830  36.2775290  35.4224210
  51.1364070  35.1478920  35.6489730  38.7195490  51.0605010  35.5949400
  38.1943110  51.4413040  34.8911360  38.6440070  51.6855780  36.3159110
  42.3023800  36.4627750  37.2478480  41.6726540  35.7615060  37.4148610
  41.7628940  37.2231880  37.0311640  45.2415750  53.0766980  49.9189090
  46.1683060  52.8411250  49.9625050  45.2266180  53.9038980  49.4375120
  53.4760810  52.6192550  36.9163340  53.6513000  51.9330290  36.2724260
  52.7782380  53.1439600  36.5240010  42.4279360  35.7411730  49.6830970
  42.1463630  36.2445330  48.9191790  42.8099060  34.9433480  49.3173100
  41.3188460  53.0087390  34.4698650  42.0507280  52.7246670  33.9222540
  41.5782130  52.7700670  35.3598030  40.4803250  49.1252120  34.4744980
  39.8512130  49.5937220  35.0230810  40.5951080  48.2801340  34.9091170
  49.0294820  35.1565310  50.2611440  48.9160270  35.4759920  51.1562960
  49.8464560  35.5577820  49.9648720  51.8093310  52.3036840  49.7430130
  52.6018630  51.8086070  49.5356090  52.1026460  52.9826980  50.3505740
  47.9352970  43.1757780  20.6246180  47.8547020  42.2612390  20.3537890
  47.5217390  43.6724850  19.9185890  46.0671010  44.9536800  22.5055450
  45.2913110  44.4737240  22.7954020  46.7183940  44.2742450  22.3311610
  40.0836840  45.2656610  23.3831210  39.2521720  45.0105320  23.7827720
  40.6917820  45.3367380  24.1189130  50.0878440  49.3596990  21.2854580
  49.6259970  48.5884230  21.6141750  50.9003990  49.3863060  21.7907030
  40.0638100  49.2996700  23.5789230  40.3666140  48.4094440  23.3999450
  40.8081690  49.8566920  23.3511480  38.4928790  40.2258500  17.1673600
  37.6045490  40.5674470  17.0653480  38.7769980  40.0258820  16.2754430
  36.4561800  42.8264150  23.0513300  37.0277910  42.0586350  23.0516940
  36.4563340  43.1252910  22.1419910  46.3141750  51.6455000  20.9058570
  45.6953190  52.1012500  20.3353010  47.1693530  51.8006460  20.5048270
  45.5080000  47.6293990  22.5125610  45.4388280  46.6883930  22.3514740
  46.2699860  47.7195400  23.0848180  37.6986670  38.2348510  24.8382230
  37.5189510  37.3374260  25.1184990  37.2966750  38.7820380  25.5129180
  46.5385170  40.4364370  22.7394540  46.9149990  39.5636250  22.6268210
  46.4404680  40.7723070  21.8484980  40.6690180  38.8090000  18.2011980
  40.7756930  39.7093730  18.5080740  39.7582540  38.7607970  17.9106630
  50.3209290  37.9314810  19.6722880  51.1418910  37.4411380  19.7148360
  50.3543370  38.5212470  20.4254720  38.3173340  40.7309010  23.4464570
  38.9983450  40.9947380  24.0651970  38.0021390  39.8909880  23.7802580
  42.5097910  41.7776370  22.5337160  43.0176130  42.2757340  23.1742180
  43.0411150  41.0011570  22.3576520  54.6108840  39.9481560  26.2366510
  53.9061010  40.3363270  25.7181620  54.8766760  40.6431850  26.8387440
  40.7934010  36.4174930  26.8000580  40.7952450  36.9347320  25.9946480
  39.9638320  35.9405110  26.7770510  47.1805100  46.5294240  18.2990480
  46.5622370  46.9943690  17.7353200  47.6928350  47.2221720  18.7159990
  42.0436860  46.0570110  24.9774080  41.7106240  46.6839030  25.6195150
  42.2203540  46.5831990  24.1975750  50.5570770  39.8715190  22.4450420
  49.8526340  40.1600080  23.0253530  50.9182930  40.6815300  22.0849980
  40.4749340  38.1284890  24.8071030  40.8166150  38.9726940  24.5124900
  39.5365150  38.2768630  24.9236370  41.2555960  48.0250910  26.7923260
  41.8729960  48.7001990  26.5107710  40.3949080  48.4338890  26.7010760
  36.5488300  47.2150770  15.6730110  36.1716280  47.7037870  14.9415010
  36.8061370  47.8876050  16.3036640  52.1733550  49.4890320  24.7077900
  51.4897070  50.1589430  24.6994570  52.7127840  49.6870970  23.9422760
  53.6257690  39.3169980  22.8359630  52.6782600  39.3508960  22.9675060
  53.9507680  40.1308930  23.2208990  44.1577230  35.6167160  21.1315620
  44.4652210  35.0614050  20.4151120  43.2277930  35.7511620  20.9488610
  49.7092290  51.3334450  23.4223080  49.7219450  50.9296740  22.5545340
  49.1567510  52.1081740  23.3184510  51.0037710  48.0550670  18.5113250
  50.8934040  47.1125000  18.6362670  51.0005960  48.4166310  19.3976010
  49.1077730  46.2364290  24.7505690  49.5246520  46.0224400  23.9159150
  49.8317550  46.4937080  25.3214310  46.5457990  43.6815990  17.8675740
  45.6187270  43.6153370  18.0964210  46.6982810  44.6196120  17.7530980
  46.5327070  39.9532990  14.8642900  45.5930740  40.1146950  14.9495360
  46.8510330  40.6718670  14.3178890  53.0539830  44.6351510  24.8421930
  52.2258460  44.7044600  24.3672060  53.6490310  45.2205820  24.3737760
  50.5755280  45.2436290  18.3710990  49.9567700  44.9055840  17.7237290
  50.5579730  44.5996050  19.0790180  50.0181840  41.4220830  25.7876800
  49.6053020  42.2474540  26.0416790  49.2857790  40.8365870  25.5953160
  42.1514630  44.2080730  20.6495470  41.7471630  43.4957980  20.1541370
  42.2377750  43.8633970  21.5383510  42.6196330  47.8948290  22.8134680
  42.3224620  47.2893760  22.1342460  43.5696150  47.9325600  22.7024040
  40.8643250  40.9823940  24.4294510  41.4157840  41.0919280  23.6547760
  41.3786760  41.3561540  25.1449740  50.7081940  51.4680160  26.4757780
  50.2312500  52.2752350  26.2830390  50.0243730  50.8158490  26.6283990
  41.7114760  47.6329980  29.4642480  40.8143290  47.8569950  29.7115880
  41.7367630  47.7564920  28.5153880  48.7519980  44.4823100  15.3783740
  49.1913260  43.6445530  15.2321560  49.4648400  45.1152500  15.4647880
  40.5385980  44.5043300  28.0399850  40.3993750  45.3766100  28.4087250
  39.6567340  44.1616110  27.8947790  46.8615360  49.4219170  19.3464980
  47.3011270  50.1643500  18.9320370  46.8002250  49.6645740  20.2703940
  42.3366330  50.4465000  30.2485000  42.3081760  50.8507950  29.3813430
  42.1731300  49.5175360  30.0856600  52.3337120  35.7365910  13.6924780
  52.0209780  35.8292740  14.5923850  53.0949590  36.3146940  13.6422210
  38.8519260  43.1025710  18.1502120  38.7316860  43.8287800  17.5383390
  38.5420150  42.3328620  17.6730030  54.2881150  51.2292100  31.5449170
  54.7640870  51.7074990  32.2238250  54.9088310  51.1609590  30.8194670
  36.4904630  46.2740850  23.9570760  36.5685050  46.4089620  23.0126480
  37.1046310  45.5656740  24.1498880  37.7352260  47.9741040  20.3676940
  37.3280340  48.1155630  19.5130540  38.6265270  47.6901200  20.1648150
  53.6914400  48.4204950  28.7049180  53.8177460  48.1816830  27.7866360
  53.7335780  47.5889490  29.1771260  47.5531140  52.1232950  27.2743990
  48.0675810  52.0340960  28.0766420  46.7100220  52.4692650  27.5671900
  49.5285540  52.4088290  16.7027990  49.3686680  52.1191230  17.6009820
  49.3632250  51.6328420  16.1673220  42.0073920  52.1886820  18.4799610
  41.8316400  51.2722360  18.2667410  41.1529660  52.5474110  18.7197410
  49.2311670  49.9175850  15.2625990  48.5376830  49.9153140  14.6028270
  49.9734530  49.4935170  14.8320160  48.7961600  51.5438560  19.3374480
  49.2518550  50.7627940  19.6513100  49.1354120  52.2545380  19.8815660
  53.5438410  40.4737410  29.6698920  52.9282680  40.9817080  29.1414380
  53.2234830  39.5735740  29.6124860  36.5464150  47.3155020  26.4965220
  36.7095190  46.8460380  25.6784590  37.0116600  46.8078580  27.1614060
  41.3182920  36.4460780  21.5325790  40.8751070  37.2270320  21.2010310
  41.8767910  36.7690670  22.2396730  45.6052730  39.3129300  27.1361110
  45.1432100  39.5212320  27.9481050  45.2030840  38.4988650  26.8331780
  50.6057240  40.5338250  28.2657770  49.7550830  40.2344000  28.5866840
  50.4459030  40.7780260  27.3541590  47.7006950  42.0340000  30.3656560
  48.0260360  41.2003750  30.0258790  48.4887280  42.5568520  30.5134890
  44.4341740  36.0671480  16.4131620  43.8095920  36.0631350  17.1384930
  44.3471860  35.2002440  16.0167590  43.3558820  36.9908110  23.3915390
  43.6531150  37.8970940  23.3107410  43.9044380  36.5026890  22.7774960
  41.1097140  41.5694350  19.2607040  40.8838060  41.3531520  20.1653660
  40.3289670  42.0022810  18.9153010  48.3394900  41.5757720  17.8597690
  47.7403790  42.2993520  17.6761310  48.8874510  41.5134500  17.0774140
  43.5496350  42.4679930  29.9267310  43.4539950  41.5274660  29.7767710
  44.3928330  42.6895000  29.5315380  46.9459770  40.2121260  19.8900970
  47.3389340  40.5293460  19.0769660  47.3076620  39.3333140  20.0045490
  38.6806890  38.8793600  28.0801090  38.2870280  39.7268810  28.2873870
  37.9925290  38.2419970  28.2709730  45.2551940  38.9628570  31.1497830
  44.5650260  38.7700770  31.7843920  45.9984240  39.2463210  31.6822130
  35.9823940  36.8022060  22.1131170  35.6936990  37.3724920  22.8256150
  36.7269700  36.3226510  22.4762400  36.1694170  40.7442180  13.3233890
  36.0868840  41.6872940  13.4648880  35.8177230  40.6017090  12.4446240
  47.5314910  42.8027010  23.9851750  46.7996030  43.3113820  24.3341850
  47.1339250  41.9856990  23.6840530  43.9692300  39.4781210  22.3904240
  43.9728360  39.0371160  21.5408780  44.8643420  39.7998540  22.4976060
  39.8194680  39.3607700  21.3498450  39.4794730  39.8382930  22.1065500
  39.0572000  38.9072820  20.9899550  44.0312450  40.4793290  15.3811000
  44.1525270  40.4379770  16.3296820  43.6460960  41.3417440  15.2257730
  47.9940820  38.2560690  23.3974690  48.0113560  38.7069340  24.2416540
  47.7456400  37.3566330  23.6108130  43.0433950  42.7894430  14.7794300
  42.4750850  42.3412680  14.1530210  43.7522950  43.1487210  14.2459450
  51.4211570  35.6692870  29.2361070  51.7457340  34.9382530  29.7619050
  51.4568080  35.3506510  28.3342060  38.1203130  46.6906450  28.6561030
  37.7357920  46.0500120  29.2543990  38.4315320  47.3942570  29.2255760
  44.2700270  43.5382990  24.1369650  44.6370400  43.0641560  24.8830990
  44.0805330  44.4124560  24.4777990  37.1340760  38.2826680  20.2663120
  36.8487680  37.9182350  21.1041740  37.0719620  37.5507140  19.6526260
  42.0599640  42.5791630  26.4553860  41.7556710  43.4583610  26.6804220
  43.0146100  42.6391420  26.4911300  40.5881430  46.7852620  17.0520710
  39.8143690  46.2450240  16.8919430  41.3176060  46.2659230  16.7138470
  51.3469410  45.7817980  22.8447100  52.0668530  46.2773270  22.4543210
  51.1451230  45.1035870  22.2000970  46.8079350  37.1755940  16.9876490
  45.9943960  36.6769110  16.9121800  46.6141300  38.0154190  16.5712840
  46.7288210  45.8527040  28.7316100  46.6625520  44.9322710  28.4773690
  46.0993350  45.9502480  29.4460740  49.5227740  41.5475590  15.2838650
  50.4107360  41.8592820  15.1089990  49.4932830  40.6747840  14.8919230
  40.6318830  46.4533000  20.6899520  41.1497500  45.6501260  20.6356410
  40.1802850  46.3912140  21.5316350  45.5188330  47.7199280  15.9626820
  45.8604030  48.4641510  15.4670140  44.6901040  48.0330400  16.3251650
  38.1163370  43.4194370  27.6025220  37.7578310  44.0848220  28.1898560
  37.8217930  42.5877920  27.9737840  41.3176490  43.8778610  30.4864770
  41.0176630  44.0235790  29.5892590  42.0887730  43.3183900  30.3938160
  46.6604940  48.6747610  28.4819900  46.6749480  47.7428570  28.2638810
  45.9530040  48.7607370  29.1209670  51.7942010  42.8587430  14.7518510
  51.7105730  43.2901650  13.9014950  52.5136200  43.3185780  15.1845330
  52.8716150  45.3154950  27.8288480  52.1464340  45.9083730  27.6317870
  53.3991610  45.3078490  27.0301850  52.8229260  49.7129690  17.4800640
  52.1805420  49.0585310  17.7544360  52.4359920  50.1184780  16.7041310
  48.4015740  47.0415120  21.3272330  48.7539560  46.4443250  20.6673700
  47.5178070  46.7159350  21.4980580  44.4879020  47.8012810  18.7342740
  45.1750150  48.3482020  19.1150330  43.7011440  48.3453540  18.7692350
  36.6271420  43.4185630  14.2259820  37.4966270  43.7010430  14.5095740
  36.1361740  44.2321500  14.1108630  43.7906230  44.8058840  18.3468100
  44.2469010  45.6164090  18.5728290  43.4394440  44.4881980  19.1786590
  46.0938840  50.3165180  25.5760400  46.7381060  50.5224560  26.2533820
  46.4568280  49.5553580  25.1231250  39.6918010  35.1496490  18.8190620
  39.5632640  35.1414390  19.7675540  38.8680030  35.4879580  18.4681630
  47.3670920  48.3197530  24.2937850  48.0093150  47.6190690  24.4070020
  47.8920270  49.0995970  24.1134740  51.2126640  48.6046150  14.0176990
  50.9864220  47.8876590  14.6101630  50.8222840  48.3558590  13.1798740
  49.1408540  49.1192430  27.4973910  49.4764780  49.7059120  28.1751830
  48.2208880  48.9885140  27.7271700  36.9942670  52.6313010  14.7921450
  37.3540310  53.2302350  14.1378720  36.8535010  53.1772900  15.5656480
  50.7942890  46.5218090  15.6791150  50.5064590  46.9830780  16.4669030
  51.5895060  46.0615860  15.9475370  36.9784530  50.8967870  29.2663850
  37.0875650  49.9562610  29.1259240  36.3265090  51.1622620  28.6177580
  44.9697120  49.1683760  30.6661970  44.6493990  48.4493000  31.2107660
  44.2955480  49.8438830  30.7398030  43.0111290  50.0144210  15.6095120
  43.0021390  50.7473900  14.9939630  42.0909650  49.7675790  15.7022080
  38.6117930  45.2359100  16.3541880  38.0045880  45.9758000  16.3637180
  39.0867280  45.3258460  15.5280080  48.1850720  39.4009920  26.0298770
  48.5531540  38.5805130  26.3578340  47.3248920  39.4611810  26.4454420
  51.5512750  38.3566860  16.8386330  50.9225910  38.4612530  16.1244560
  51.0564670  38.5763640  17.6280210  45.9970890  50.0772450  14.2720310
  46.0982870  49.8736440  13.3422290  45.0972630  49.8230730  14.4768090
  43.5196780  40.6352810  18.2544210  42.8112930  41.1039150  18.6957820
  43.8041260  39.9774820  18.8889400  45.1452710  42.0549510  26.2536740
  45.6437960  42.5295330  26.9188590  45.2875660  41.1313030  26.4606770
  47.5512210  37.3603470  19.6940000  47.4279990  37.3789600  18.7449510
  48.4996770  37.4082410  19.8138400  44.6389000  52.5958770  18.9667980
  44.8930500  52.5580160  18.0447350  43.6901480  52.4692100  18.9596230
  41.7231800  38.9437890  15.6294920  42.5722330  39.3808040  15.5635110
  41.3563070  39.2558150  16.4566980  52.3519570  38.2717470  27.0965130
  51.8493170  39.0122870  27.4358940  53.1676230  38.6601470  26.7801920
  50.6441580  43.5150650  20.5426490  49.7031720  43.5300880  20.7174180
  50.9585650  42.7286610  20.9886790  40.6223220  45.1970250  14.1030450
  41.3886490  45.0851610  14.6655880  40.6997910  44.5008220  13.4507220
  39.3169980  42.6295320  14.7863340  39.3973570  41.6822830  14.8980740
  40.2089730  42.9602200  14.8924000  52.6467160  50.6859500  22.2180750
  52.7714580  51.5090670  22.6904560  53.5132720  50.4750230  21.8704900
  40.1184690  52.7790710  21.8897880  40.8547170  52.2306170  22.1606450
  40.5025610  53.6446720  21.7503870  37.0030170  48.8464280  17.7639390
  36.0769950  49.0885420  17.7544800  37.4686600  49.6738540  17.6424140
  39.1242970  51.9636780  31.0783460  39.9255700  52.2848830  31.4918860
  38.6094790  51.6032360  31.8003370  43.2287000  51.9521020  13.7123450
  44.0215610  52.2409850  13.2605240  42.7091350  51.5213190  13.0335930
  47.9607600  48.0716650  31.0258870  47.3545760  48.0948250  30.2854620
  47.6561710  47.3399690  31.5626120  49.3907970  51.7996940  29.6368280
  50.3429720  51.7154960  29.5868520  49.2436190  52.4638650  30.3102070
  52.2817170  51.1791150  15.1360190  51.9958680  50.7656290  14.3214370
  52.0836720  52.1078860  15.0160710  36.8440780  44.4510240  30.0219510
  37.3479800  43.8717520  30.5935740  36.1048200  44.7350470  30.5595880
  43.7464400  47.1724430  13.5765800  43.6415040  46.5576780  14.3027180
  43.5788620  46.6490320  12.7928810  43.8978720  45.8581230  29.5555030
  43.1324390  46.4266230  29.4709700  44.0794680  45.5657440  28.6623260
  46.9867130  46.2344460  14.1807790  46.4377230  46.6813760  14.8250530
  47.6086390  45.7293710  14.7045460  51.0402070  47.5886560  30.1130050
  51.7811540  47.9262320  29.6097510  50.2774750  47.7578620  29.5599820
  38.8763860  42.5939830  30.9169580  38.9169200  42.2953700  31.8254810
  39.7309360  42.9947440  30.7577100  42.6542250  45.1935380  16.0773090
  43.0758670  45.0275250  16.9204480  42.7793090  44.3835610  15.5828230
  40.8169670  41.1731930  28.8844070  40.2866130  40.6822880  28.2567410
  41.4857740  41.6016130  28.3502000  45.1669890  44.2172990  13.3250190
  45.6875550  43.5022010  12.9591340  45.8138290  44.8558860  13.6250700
  49.7147730  45.6401390  28.6485260  50.1288750  45.7946470  29.4975680
  48.7798730  45.7656610  28.8111040  50.1869900  42.9797550  30.6524410
  50.7690670  42.2249870  30.5644890  50.3631670  43.5104990  29.8755890
  41.3041970  38.1394300  28.9641360  41.2098840  37.5215050  28.2392230
  40.7239360  38.8660590  28.7371270  44.0703410  36.6967540  25.9968750
  43.6220710  36.7191800  25.1514300  43.4368610  36.2986560  26.5939050
  44.4762960  45.5921870  26.6181190  44.8951070  46.4354600  26.4457430
  43.5571590  45.7293910  26.3887970  46.8126860  43.3238050  28.0019030
  46.9323070  42.7279190  28.7413870  47.6720860  43.3607740  27.5820330
  49.1514760  43.8775240  26.5781540  48.6249980  44.4017860  25.9746680
  49.4946100  44.5102630  27.2091270  41.5501150  41.2668610  13.0231250
  41.3490210  40.4035970  13.3844590  41.3793200  41.1801970  12.0852850
  42.3270380  51.8974880  27.7338920  41.7891470  52.6220940  27.4147620
  42.5804340  51.4205220  26.9436260  43.5795630  39.8659400  29.2594850
  44.1695320  39.5575250  29.9472670  42.7615870  39.3939150  29.4154750
  48.3989060  39.4825210  29.4927870  47.7104580  38.8206750  29.4277860
  49.1195080  39.0363480  29.9376330  49.0289460  36.0776840  15.5518130
  49.3091750  35.2344740  15.9077550  48.2555190  36.3099950  16.0656880
  40.3483950  38.3669230  13.0109130  40.6509850  38.3736660  12.1028280
  41.0878540  38.0167090  13.5076790  45.1832590  53.1326090  27.9925570
  45.1091290  54.0361230  28.2997940  44.2811430  52.8137990  27.9647640
  43.5668880  37.3103850  13.9965330  43.2190880  36.6327840  13.4167780
  43.7681650  36.8493360  14.8108720  45.7317920  52.2984600  15.6151930
  46.6268710  52.6369570  15.6370690  45.7635550  51.5764010  14.9876210
  39.3714080  47.6711650  13.8438930  39.8088950  48.2141320  14.4996510
  39.8561810  46.8458600  13.8535270  36.5859880  50.4600680  21.2959190
  36.9162890  49.5921740  21.0637830  37.0150880  50.6659200  22.1264150
  41.1821800  48.7909690  18.9561160  40.8817340  48.6674660  19.8565070
  41.0759290  47.9318280  18.5476890  37.0750090  51.3271270  24.0340820
  36.6381080  51.5072070  24.8664970  37.6427770  52.0845890  23.8922540
  52.7112270  50.8288270  28.3218130  52.1114260  50.8880830  27.5782050
  52.8406170  49.8893250  28.4514980  53.9513720  48.5706090  13.6587840
  53.1206680  48.6382740  14.1295070  54.1285550  49.4610210  13.3554700
  53.4070180  45.3153570  16.1622040  54.1689090  45.8850220  16.2681730
  53.4224550  44.7480770  16.9330350  36.9074520  43.8391500  20.3929700
  36.2523360  43.5703140  19.7489400  37.7452470  43.7295980  19.9431680
  54.4130150  46.1703670  21.0063970  54.7838980  45.3870990  20.5999940
  55.0532080  46.8592770  20.8281270  51.3963910  47.5540250  26.4194290
  50.5823750  47.9837410  26.6820080  51.8038110  48.1658660  25.8063340
  53.4589350  45.6087940  13.3194560  53.7338190  46.5166820  13.1913780
  53.2700090  45.5450470  14.2556550  49.8564960  38.6332790  14.6148190
  50.2749840  38.4463770  13.7744850  49.5501020  37.7811840  14.9251120
  53.3554690  43.5456930  18.3123990  52.9798290  42.7784860  17.8805280
  52.6257810  43.9279630  18.7998920  37.9450450  44.2244070  24.9333040
  38.3123490  44.1371470  25.8129060  37.3761270  43.4610620  24.8339900
  52.7454310  42.6928450  27.9463510  52.5140400  42.4641200  27.0461460
  53.0058860  43.6128000  27.9008400  37.4966450  41.1353160  28.8391460
  36.6022500  41.1019920  29.1785170  38.0364000  41.3339950  29.6042710
  51.1842380  37.9184880  30.7243210  52.0612560  37.9268280  31.1077210
  51.1963220  37.1815720  30.1135560  36.1212600  41.0490430  16.3355030
  35.2176680  41.3120630  16.1606690  36.6053220  41.3201600  15.5554990
  52.6305650  41.7714420  21.6131230  53.1543130  41.2777070  20.9821400
  53.2165070  41.9064780  22.3578800  52.8095370  41.8554290  25.1350780
  51.8598080  41.8217830  25.2495770  52.9908380  42.7654400  24.9000550
  38.6639810  40.1055970  14.2449410  39.3731510  39.6839190  13.7596690
  37.9479750  40.1731200  13.6132760  38.3113970  36.1595300  13.2852060
  39.0342100  36.7004240  13.6033280  38.5838490  35.8858720  12.4093600
  52.1205620  41.0287770  17.5523640  52.6164740  40.7958640  18.3372520
  51.9221690  40.1899610  17.1361280  38.0006160  35.4101490  23.1874680
  38.6482350  34.8598870  22.7469840  38.4208000  35.6644640  24.0090490
  53.5492780  39.6648720  20.0861320  53.4392060  39.5104760  21.0243590
  54.3100370  39.1369660  19.8436730  51.8958500  35.6042850  26.5444320
  52.5330720  36.2176990  26.9103510  52.0433390  35.6403510  25.5993550
  54.4383050  37.4956640  13.3267460  55.3632360  37.3637820  13.1185750
  54.4158840  37.5749460  14.2803910  54.5121540  38.2667300  15.9524170
  53.7173040  38.2012420  16.4817080  54.7164820  39.2017940  15.9409520
  51.4539960  52.3058850  19.9462560  52.0499030  51.9843420  19.2696980
  51.7118110  51.8330670  20.7375830  37.7538160  35.5657160  25.9300000
  37.4052980  36.0220980  26.6958180  37.4225860  34.6714290  26.0122430
  39.3602530  48.7376760  30.0953190  39.3172160  48.3669670  30.9767650
  39.4913540  49.6754330  30.2355010  43.0608560  50.2936350  25.6962910
  42.8199920  50.5610910  24.8093430  44.0011200  50.4642080  25.7513770
  45.2662980  36.7569040  29.4519420  45.2051870  37.3490870  30.2014830
  46.2063360  36.6495000  29.3069680  47.9037540  36.4139100  29.0911710
  48.5177950  36.7318390  28.4292790  48.4487100  35.9287690  29.7107570
  54.3212720  52.3130730  26.4973550  53.8271000  52.7099600  25.7800680
  53.7126010  51.6879940  26.8910830  39.1990560  51.6839010  27.2150970
  38.6050880  51.5523710  27.9541010  39.1914400  50.8477150  26.7493070
  48.6445580  34.9771240  25.4181000  47.7705420  35.3106350  25.2153930
  48.5356330  34.5044420  26.2432870  49.5517560  37.1842110  26.8022720
  49.2230920  36.3693870  26.4224450  50.4999860  37.1411920  26.6788410
  52.0052170  52.9554150  23.7760290  51.5455140  53.7069960  23.4018310
  51.3764630  52.2360620  23.7175090  38.8302790  49.0497390  26.1659010
  38.1036850  48.4302680  26.0984960  38.8911940  49.4438000  25.2957090
  42.4347890  51.2642390  22.9508420  42.9512910  50.6529750  22.4256680
  43.0845270  51.7671170  23.4419430  45.1743390  52.1550880  23.7777400
  45.4621200  51.9005180  22.9010410  45.6866610  51.6028240  24.3682970
  46.3920400  35.8941080  24.3573910  45.6092190  36.3686580  24.6370670
  46.0983330  34.9895910  24.2487090  50.9441470  36.5964180  22.4023000
  51.3849560  36.5409280  21.5544600  50.6749060  37.5122190  22.4733180
  52.8080040  36.2279420  20.4131820  52.7468440  35.2840640  20.2662840
  53.5872070  36.3359510  20.9585280  37.1132790  52.3671780  19.3755770
  36.9454830  51.7342460  20.0737660  36.2467300  52.5731180  19.0249960
  37.7360810  36.1988560  16.8787630  38.4940170  36.3117440  16.3051660
  37.2737980  37.0357760  16.8331060  44.2774620  38.3127830  19.8689940
  43.4649130  37.9384720  19.5285820  44.7816260  37.5572910  20.1711130
  48.7799600  34.9770280  21.1073010  49.3828970  35.5490490  21.5821530
  48.0392590  35.5409720  20.8846910  51.9234200  35.3791840  16.3813290
  52.1184830  36.2775290  16.6480720  51.1364070  35.1478920  16.8746240
  38.7195490  51.0605010  16.8205910  38.1943110  51.4413040  16.1167870
  38.6440070  51.6855780  17.5415620  40.1085960  36.7252610  15.4189600
  40.6378720  35.9382410  15.2897550  40.7414280  37.4043800  15.6525130
  42.3023800  36.4627750  18.4734990  41.6726540  35.7615060  18.6405120
  41.7628940  37.2231880  18.2568150  45.2415750  53.0766980  31.1445600
  46.1683060  52.8411250  31.1881560  45.2266180  53.9038980  30.6631630
  53.4760810  52.6192550  18.1419850  53.6513000  51.9330290  17.4980770
  52.7782380  53.1439600  17.7496520  41.3188460  53.0087390  15.6955160
  42.0507280  52.7246670  15.1479050  41.5782130  52.7700670  16.5854540
  40.4803250  49.1252120  15.7001490  39.8512130  49.5937220  16.2487320
  40.5951080  48.2801340  16.1347680  49.0294820  35.1565310  31.4867950
  48.9160270  35.4759920  32.3819470  49.8464560  35.5577820  31.1905230
  51.8093310  52.3036840  30.9686640  52.6018630  51.8086070  30.7612600
  52.1026460  52.9826980  31.5762250  46.0671010  44.9536800   3.7311960
  45.2913110  44.4737240   4.0210530  46.7183940  44.2742450   3.5568120
  40.0836840  45.2656610   4.6087720  39.2521720  45.0105320   5.0084230
  40.6917820  45.3367380   5.3445640  50.0878440  49.3596990   2.5111090
  49.6259970  48.5884230   2.8398260  50.9003990  49.3863060   3.0163540
  40.0638100  49.2996700   4.8045740  40.3666140  48.4094440   4.6255960
  40.8081690  49.8566920   4.5767990  36.4561800  42.8264150   4.2769810
  37.0277910  42.0586350   4.2773450  36.4563340  43.1252910   3.3676420
  45.5080000  47.6293990   3.7382120  45.4388280  46.6883930   3.5771250
  46.2699860  47.7195400   4.3104690  37.6986670  38.2348510   6.0638740
  37.5189510  37.3374260   6.3441500  37.2966750  38.7820380   6.7385690
  46.5385170  40.4364370   3.9651050  46.9149990  39.5636250   3.8524720
  46.4404680  40.7723070   3.0741490  38.3173340  40.7309010   4.6721080
  38.9983450  40.9947380   5.2908480  38.0021390  39.8909880   5.0059090
  42.5097910  41.7776370   3.7593670  43.0176130  42.2757340   4.3998690
  43.0411150  41.0011570   3.5833030  54.6108840  39.9481560   7.4623020
  53.9061010  40.3363270   6.9438130  54.8766760  40.6431850   8.0643950
  40.7934010  36.4174930   8.0257090  40.7952450  36.9347320   7.2202990
  39.9638320  35.9405110   8.0027020  42.0436860  46.0570110   6.2030590
  41.7106240  46.6839030   6.8451660  42.2203540  46.5831990   5.4232260
  50.5570770  39.8715190   3.6706930  49.8526340  40.1600080   4.2510040
  50.9182930  40.6815300   3.3106490  40.4749340  38.1284890   6.0327540
  40.8166150  38.9726940   5.7381410  39.5365150  38.2768630   6.1492880
  41.2555960  48.0250910   8.0179770  41.8729960  48.7001990   7.7364220
  40.3949080  48.4338890   7.9267270  52.1733550  49.4890320   5.9334410
  51.4897070  50.1589430   5.9251080  52.7127840  49.6870970   5.1679270
  53.6257690  39.3169980   4.0616140  52.6782600  39.3508960   4.1931570
  53.9507680  40.1308930   4.4465500  49.7092290  51.3334450   4.6479590
  49.7219450  50.9296740   3.7801850  49.1567510  52.1081740   4.5441020
  49.1077730  46.2364290   5.9762200  49.5246520  46.0224400   5.1415660
  49.8317550  46.4937080   6.5470820  53.0539830  44.6351510   6.0678440
  52.2258460  44.7044600   5.5928570  53.6490310  45.2205820   5.5994270
  50.0181840  41.4220830   7.0133310  49.6053020  42.2474540   7.2673300
  49.2857790  40.8365870   6.8209670  42.6196330  47.8948290   4.0391190
  42.3224620  47.2893760   3.3598970  43.5696150  47.9325600   3.9280550
  40.8643250  40.9823940   5.6551020  41.4157840  41.0919280   4.8804270
  41.3786760  41.3561540   6.3706250  50.7081940  51.4680160   7.7014290
  50.2312500  52.2752350   7.5086900  50.0243730  50.8158490   7.8540500
  41.7114760  47.6329980  10.6898990  40.8143290  47.8569950  10.9372390
  41.7367630  47.7564920   9.7410390  40.5385980  44.5043300   9.2656360
  40.3993750  45.3766100   9.6343760  39.6567340  44.1616110   9.1204300
  42.3366330  50.4465000  11.4741510  42.3081760  50.8507950  10.6069940
  42.1731300  49.5175360  11.3113110  54.2881150  51.2292100  12.7705680
  54.7640870  51.7074990  13.4494760  54.9088310  51.1609590  12.0451180
  36.4904630  46.2740850   5.1827270  36.5685050  46.4089620   4.2382990
  37.1046310  45.5656740   5.3755390  53.6914400  48.4204950   9.9305690
  53.8177460  48.1816830   9.0122870  53.7335780  47.5889490  10.4027770
  47.5531140  52.1232950   8.5000500  48.0675810  52.0340960   9.3022930
  46.7100220  52.4692650   8.7928410  53.5438410  40.4737410  10.8955430
  52.9282680  40.9817080  10.3670890  53.2234830  39.5735740  10.8381370
  36.5464150  47.3155020   7.7221730  36.7095190  46.8460380   6.9041100
  37.0116600  46.8078580   8.3870570  41.3182920  36.4460780   2.7582300
  40.8751070  37.2270320   2.4266820  41.8767910  36.7690670   3.4653240
  45.6052730  39.3129300   8.3617620  45.1432100  39.5212320   9.1737560
  45.2030840  38.4988650   8.0588290  50.6057240  40.5338250   9.4914280
  49.7550830  40.2344000   9.8123350  50.4459030  40.7780260   8.5798100
  47.7006950  42.0340000  11.5913070  48.0260360  41.2003750  11.2515300
  48.4887280  42.5568520  11.7391400  43.3558820  36.9908110   4.6171900
  43.6531150  37.8970940   4.5363920  43.9044380  36.5026890   4.0031470
  43.5496350  42.4679930  11.1523820  43.4539950  41.5274660  11.0024220
  44.3928330  42.6895000  10.7571890  38.6806890  38.8793600   9.3057600
  38.2870280  39.7268810   9.5130380  37.9925290  38.2419970   9.4966240
  45.2551940  38.9628570  12.3754340  44.5650260  38.7700770  13.0100430
  45.9984240  39.2463210  12.9078640  35.9823940  36.8022060   3.3387680
  35.6936990  37.3724920   4.0512660  36.7269700  36.3226510   3.7018910
  47.5314910  42.8027010   5.2108260  46.7996030  43.3113820   5.5598360
  47.1339250  41.9856990   4.9097040  43.9692300  39.4781210   3.6160750
  43.9728360  39.0371160   2.7665290  44.8643420  39.7998540   3.7232570
  39.8194680  39.3607700   2.5754960  39.4794730  39.8382930   3.3322010
  39.0572000  38.9072820   2.2156060  47.9940820  38.2560690   4.6231200
  48.0113560  38.7069340   5.4673050  47.7456400  37.3566330   4.8364640
  51.4211570  35.6692870  10.4617580  51.7457340  34.9382530  10.9875560
  51.4568080  35.3506510   9.5598570  38.1203130  46.6906450   9.8817540
  37.7357920  46.0500120  10.4800500  38.4315320  47.3942570  10.4512270
  44.2700270  43.5382990   5.3626160  44.6370400  43.0641560   6.1087500
  44.0805330  44.4124560   5.7034500  42.0599640  42.5791630   7.6810370
  41.7556710  43.4583610   7.9060730  43.0146100  42.6391420   7.7167810
  51.3469410  45.7817980   4.0703610  52.0668530  46.2773270   3.6799720
  51.1451230  45.1035870   3.4257480  46.7288210  45.8527040   9.9572610
  46.6625520  44.9322710   9.7030200  46.0993350  45.9502480  10.6717250
  40.6318830  46.4533000   1.9156030  41.1497500  45.6501260   1.8612920
  40.1802850  46.3912140   2.7572860  38.1163370  43.4194370   8.8281730
  37.7578310  44.0848220   9.4155070  37.8217930  42.5877920   9.1994350
  41.3176490  43.8778610  11.7121280  41.0176630  44.0235790  10.8149100
  42.0887730  43.3183900  11.6194670  46.6604940  48.6747610   9.7076410
  46.6749480  47.7428570   9.4895320  45.9530040  48.7607370  10.3466180
  52.8716150  45.3154950   9.0544990  52.1464340  45.9083730   8.8574380
  53.3991610  45.3078490   8.2558360  48.4015740  47.0415120   2.5528840
  48.7539560  46.4443250   1.8930210  47.5178070  46.7159350   2.7237090
  46.0938840  50.3165180   6.8016910  46.7381060  50.5224560   7.4790330
  46.4568280  49.5553580   6.3487760  47.3670920  48.3197530   5.5194360
  48.0093150  47.6190690   5.6326530  47.8920270  49.0995970   5.3391250
  49.1408540  49.1192430   8.7230420  49.4764780  49.7059120   9.4008340
  48.2208880  48.9885140   8.9528210  36.6911940  36.9087610   9.5053830
  35.9770460  37.1084530  10.1106440  37.1106980  36.1327180   9.8768630
  36.9784530  50.8967870  10.4920360  37.0875650  49.9562610  10.3515750
  36.3265090  51.1622620   9.8434090  44.9697120  49.1683760  11.8918480
  44.6493990  48.4493000  12.4364170  44.2955480  49.8438830  11.9654540
  48.1850720  39.4009920   7.2555280  48.5531540  38.5805130   7.5834850
  47.3248920  39.4611810   7.6710930  45.1452710  42.0549510   7.4793250
  45.6437960  42.5295330   8.1445100  45.2875660  41.1313030   7.6863280
  52.3519570  38.2717470   8.3221640  51.8493170  39.0122870   8.6615450
  53.1676230  38.6601470   8.0058430  50.6441580  43.5150650   1.7683000
  49.7031720  43.5300880   1.9430690  50.9585650  42.7286610   2.2143300
  52.6467160  50.6859500   3.4437260  52.7714580  51.5090670   3.9161070
  53.5132720  50.4750230   3.0961410  40.1184690  52.7790710   3.1154390
  40.8547170  52.2306170   3.3862960  40.5025610  53.6446720   2.9760380
  39.1242970  51.9636780  12.3039970  39.9255700  52.2848830  12.7175370
  38.6094790  51.6032360  13.0259880  47.9607600  48.0716650  12.2515380
  47.3545760  48.0948250  11.5111130  47.6561710  47.3399690  12.7882630
  49.3907970  51.7996940  10.8624790  50.3429720  51.7154960  10.8125030
  49.2436190  52.4638650  11.5358580  36.8440780  44.4510240  11.2476020
  37.3479800  43.8717520  11.8192250  36.1048200  44.7350470  11.7852390
  43.8978720  45.8581230  10.7811540  43.1324390  46.4266230  10.6966210
  44.0794680  45.5657440   9.8879770  51.0402070  47.5886560  11.3386560
  51.7811540  47.9262320  10.8354020  50.2774750  47.7578620  10.7856330
  38.8763860  42.5939830  12.1426090  38.9169200  42.2953700  13.0511320
  39.7309360  42.9947440  11.9833610  40.8169670  41.1731930  10.1100580
  40.2866130  40.6822880   9.4823920  41.4857740  41.6016130   9.5758510
  49.7147730  45.6401390   9.8741770  50.1288750  45.7946470  10.7232190
  48.7798730  45.7656610  10.0367550  50.1869900  42.9797550  11.8780920
  50.7690670  42.2249870  11.7901400  50.3631670  43.5104990  11.1012400
  41.3041970  38.1394300  10.1897870  41.2098840  37.5215050   9.4648740
  40.7239360  38.8660590   9.9627780  44.0703410  36.6967540   7.2225260
  43.6220710  36.7191800   6.3770810  43.4368610  36.2986560   7.8195560
  44.4762960  45.5921870   7.8437700  44.8951070  46.4354600   7.6713940
  43.5571590  45.7293910   7.6144480  46.8126860  43.3238050   9.2275540
  46.9323070  42.7279190   9.9670380  47.6720860  43.3607740   8.8076840
  49.1514760  43.8775240   7.8038050  48.6249980  44.4017860   7.2003190
  49.4946100  44.5102630   8.4347780  42.3270380  51.8974880   8.9595430
  41.7891470  52.6220940   8.6404130  42.5804340  51.4205220   8.1692770
  43.5795630  39.8659400  10.4851360  44.1695320  39.5575250  11.1729180
  42.7615870  39.3939150  10.6411260  48.3989060  39.4825210  10.7184380
  47.7104580  38.8206750  10.6534370  49.1195080  39.0363480  11.1632840
  45.1832590  53.1326090   9.2182080  45.1091290  54.0361230   9.5254450
  44.2811430  52.8137990   9.1904150  36.5859880  50.4600680   2.5215700
  36.9162890  49.5921740   2.2894340  37.0150880  50.6659200   3.3520660
  37.0750090  51.3271270   5.2597330  36.6381080  51.5072070   6.0921480
  37.6427770  52.0845890   5.1179050  52.7112270  50.8288270   9.5474640
  52.1114260  50.8880830   8.8038560  52.8406170  49.8893250   9.6771490
  54.4130150  46.1703670   2.2320480  54.7838980  45.3870990   1.8256450
  55.0532080  46.8592770   2.0537780  51.3963910  47.5540250   7.6450800
  50.5823750  47.9837410   7.9076590  51.8038110  48.1658660   7.0319850
  37.9450450  44.2244070   6.1589550  38.3123490  44.1371470   7.0385570
  37.3761270  43.4610620   6.0596410  52.7454310  42.6928450   9.1720020
  52.5140400  42.4641200   8.2717970  53.0058860  43.6128000   9.1264910
  37.4966450  41.1353160  10.0647970  36.6022500  41.1019920  10.4041680
  38.0364000  41.3339950  10.8299220  51.1842380  37.9184880  11.9499720
  52.0612560  37.9268280  12.3333720  51.1963220  37.1815720  11.3392070
  52.6305650  41.7714420   2.8387740  53.1543130  41.2777070   2.2077910
  53.2165070  41.9064780   3.5835310  52.8095370  41.8554290   6.3607290
  51.8598080  41.8217830   6.4752280  52.9908380  42.7654400   6.1257060
  38.0006160  35.4101490   4.4131190  38.6482350  34.8598870   3.9726350
  38.4208000  35.6644640   5.2347000  51.8958500  35.6042850   7.7700830
  52.5330720  36.2176990   8.1360020  52.0433390  35.6403510   6.8250060
  37.7538160  35.5657160   7.1556510  37.4052980  36.0220980   7.9214690
  37.4225860  34.6714290   7.2378940  39.3602530  48.7376760  11.3209700
  39.3172160  48.3669670  12.2024160  39.4913540  49.6754330  11.4611520
  43.0608560  50.2936350   6.9219420  42.8199920  50.5610910   6.0349940
  44.0011200  50.4642080   6.9770280  45.2662980  36.7569040  10.6775930
  45.2051870  37.3490870  11.4271340  46.2063360  36.6495000  10.5326190
  47.9037540  36.4139100  10.3168220  48.5177950  36.7318390   9.6549300
  48.4487100  35.9287690  10.9364080  54.3212720  52.3130730   7.7230060
  53.8271000  52.7099600   7.0057190  53.7126010  51.6879940   8.1167340
  38.4258800  35.0933360  10.4307280  38.9741790  34.9121410   9.6673390
  38.4914110  34.3027470  10.9663590  39.1990560  51.6839010   8.4407480
  38.6050880  51.5523710   9.1797520  39.1914400  50.8477150   7.9749580
  48.6445580  34.9771240   6.6437510  47.7705420  35.3106350   6.4410440
  48.5356330  34.5044420   7.4689380  49.5517560  37.1842110   8.0279230
  49.2230920  36.3693870   7.6480960  50.4999860  37.1411920   7.9044920
  52.0052170  52.9554150   5.0016800  51.5455140  53.7069960   4.6274820
  51.3764630  52.2360620   4.9431600  38.8302790  49.0497390   7.3915520
  38.1036850  48.4302680   7.3241470  38.8911940  49.4438000   6.5213600
  42.4347890  51.2642390   4.1764930  42.9512910  50.6529750   3.6513190
  43.0845270  51.7671170   4.6675940  45.1743390  52.1550880   5.0033910
  45.4621200  51.9005180   4.1266920  45.6866610  51.6028240   5.5939480
  46.3920400  35.8941080   5.5830420  45.6092190  36.3686580   5.8627180
  46.0983330  34.9895910   5.4743600  50.9441470  36.5964180   3.6279510
  51.3849560  36.5409280   2.7801110  50.6749060  37.5122190   3.6989690
  48.7799600  34.9770280   2.3329520  49.3828970  35.5490490   2.8078040
  48.0392590  35.5409720   2.1103420  45.2415750  53.0766980  12.3702110
  46.1683060  52.8411250  12.4138070  45.2266180  53.9038980  11.8888140
  42.4279360  35.7411730  12.1343990  42.1463630  36.2445330  11.3704810
  42.8099060  34.9433480  11.7686120  49.0294820  35.1565310  12.7124460
  48.9160270  35.4759920  13.6075980  49.8464560  35.5577820  12.4161740
  51.8093310  52.3036840  12.1943150  52.6018630  51.8086070  11.9869110
  52.1026460  52.9826980  12.8018760  47.9352970  24.4014290  58.1733160
  47.8547020  23.4868900  57.9024870  47.5217390  24.8981360  57.4672870
  46.0671010  26.1793310  60.0542430  45.2913110  25.6993750  60.3441000
  46.7183940  25.4998960  59.8798590  50.0878440  30.5853500  58.8341560
  49.6259970  29.8140740  59.1628730  50.9003990  30.6119570  59.3394010
  40.0638100  30.5253210  61.1276210  40.3666140  29.6350950  60.9486430
  40.8081690  31.0823430  60.8998460  38.4928790  21.4515010  54.7160580
  37.6045490  21.7930980  54.6140460  38.7769980  21.2515330  53.8241410
  36.4561800  24.0520660  60.6000280  37.0277910  23.2842860  60.6003920
  36.4563340  24.3509420  59.6906890  46.3141750  32.8711510  58.4545550
  45.6953190  33.3269010  57.8839990  47.1693530  33.0262970  58.0535250
  45.5080000  28.8550500  60.0612590  45.4388280  27.9140440  59.9001720
  46.2699860  28.9451910  60.6335160  46.5385170  21.6620880  60.2881520
  46.9149990  20.7892760  60.1755190  46.4404680  21.9979580  59.3971960
  40.6690180  20.0346510  55.7498960  40.7756930  20.9350240  56.0567720
  39.7582540  19.9864480  55.4593610  50.3209290  19.1571320  57.2209860
  51.1418910  18.6667890  57.2635340  50.3543370  19.7468980  57.9741700
  42.5097910  23.0032880  60.0824140  43.0176130  23.5013850  60.7229160
  43.0411150  22.2268080  59.9063500  47.1805100  27.7550750  55.8477460
  46.5622370  28.2200200  55.2840180  47.6928350  28.4478230  56.2646970
  50.5570770  21.0971700  59.9937400  49.8526340  21.3856590  60.5740510
  50.9182930  21.9071810  59.6336960  36.5488300  28.4407280  53.2217090
  36.1716280  28.9294380  52.4901990  36.8061370  29.1132560  53.8523620
  53.6257690  20.5426490  60.3846610  52.6782600  20.5765470  60.5162040
  53.9507680  21.3565440  60.7695970  44.1577230  16.8423670  58.6802600
  44.4652210  16.2870560  57.9638100  43.2277930  16.9768130  58.4975590
  49.7092290  32.5590960  60.9710060  49.7219450  32.1553250  60.1032320
  49.1567510  33.3338250  60.8671490  51.0037710  29.2807180  56.0600230
  50.8934040  28.3381510  56.1849650  51.0005960  29.6422820  56.9462990
  46.5457990  24.9072500  55.4162720  45.6187270  24.8409880  55.6451190
  46.6982810  25.8452630  55.3017960  46.5327070  21.1789500  52.4129880
  45.5930740  21.3403460  52.4982340  46.8510330  21.8975180  51.8665870
  50.5755280  26.4692800  55.9197970  49.9567700  26.1312350  55.2724270
  50.5579730  25.8252560  56.6277160  42.1514630  25.4337240  58.1982450
  41.7471630  24.7214490  57.7028350  42.2377750  25.0890480  59.0870490
  42.6196330  29.1204800  60.3621660  42.3224620  28.5150270  59.6829440
  43.5696150  29.1582110  60.2511020  48.7519980  25.7079610  52.9270720
  49.1913260  24.8702040  52.7808540  49.4648400  26.3409010  53.0134860
  46.8615360  30.6475680  56.8951960  47.3011270  31.3900010  56.4807350
  46.8002250  30.8902250  57.8190920  52.3337120  16.9622420  51.2411760
  52.0209780  17.0549250  52.1410830  53.0949590  17.5403450  51.1909190
  38.8519260  24.3282220  55.6989100  38.7316860  25.0544310  55.0870370
  38.5420150  23.5585130  55.2217010  37.7352260  29.1997550  57.9163920
  37.3280340  29.3412140  57.0617520  38.6265270  28.9157710  57.7135130
  49.5285540  33.6344800  54.2514970  49.3686680  33.3447740  55.1496800
  49.3632250  32.8584930  53.7160200  42.0073920  33.4143330  56.0286590
  41.8316400  32.4978870  55.8154390  41.1529660  33.7730620  56.2684390
  49.2311670  31.1432360  52.8112970  48.5376830  31.1409650  52.1515250
  49.9734530  30.7191680  52.3807140  48.7961600  32.7695070  56.8861460
  49.2518550  31.9884450  57.2000080  49.1354120  33.4801890  57.4302640
  41.3182920  17.6717290  59.0812770  40.8751070  18.4526830  58.7497290
  41.8767910  17.9947180  59.7883710  44.4341740  17.2927990  53.9618600
  43.8095920  17.2887860  54.6871910  44.3471860  16.4258950  53.5654570
  43.3558820  18.2164620  60.9402370  43.6531150  19.1227450  60.8594390
  43.9044380  17.7283400  60.3261940  41.1097140  22.7950860  56.8094020
  40.8838060  22.5788030  57.7140640  40.3289670  23.2279320  56.4639990
  48.3394900  22.8014230  55.4084670  47.7403790  23.5250030  55.2248290
  48.8874510  22.7391010  54.6261120  46.9459770  21.4377770  57.4387950
  47.3389340  21.7549970  56.6256640  47.3076620  20.5589650  57.5532470
  35.9823940  18.0278570  59.6618150  35.6936990  18.5981430  60.3743130
  36.7269700  17.5483020  60.0249380  36.1694170  21.9698690  50.8720870
  36.0868840  22.9129450  51.0135860  35.8177230  21.8273600  49.9933220
  43.9692300  20.7037720  59.9391220  43.9728360  20.2627670  59.0895760
  44.8643420  21.0255050  60.0463040  39.8194680  20.5864210  58.8985430
  39.4794730  21.0639440  59.6552480  39.0572000  20.1329330  58.5386530
  44.0312450  21.7049800  52.9297980  44.1525270  21.6636280  53.8783800
  43.6460960  22.5673950  52.7744710  43.0433950  24.0150940  52.3281280
  42.4750850  23.5669190  51.7017190  43.7522950  24.3743720  51.7946430
  37.1340760  19.5083190  57.8150100  36.8487680  19.1438860  58.6528720
  37.0719620  18.7763650  57.2013240  40.5881430  28.0109130  54.6007690
  39.8143690  27.4706750  54.4406410  41.3176060  27.4915740  54.2625450
  51.3469410  27.0074490  60.3934080  52.0668530  27.5029780  60.0030190
  51.1451230  26.3292380  59.7487950  46.8079350  18.4012450  54.5363470
  45.9943960  17.9025620  54.4608780  46.6141300  19.2410700  54.1199820
  49.5227740  22.7732100  52.8325630  50.4107360  23.0849330  52.6576970
  49.4932830  21.9004350  52.4406210  40.6318830  27.6789510  58.2386500
  41.1497500  26.8757770  58.1843390  40.1802850  27.6168650  59.0803330
  45.5188330  28.9455790  53.5113800  45.8604030  29.6898020  53.0157120
  44.6901040  29.2586910  53.8738630  51.7942010  24.0843940  52.3005490
  51.7105730  24.5158160  51.4501930  52.5136200  24.5442290  52.7332310
  52.8229260  30.9386200  55.0287620  52.1805420  30.2841820  55.3031340
  52.4359920  31.3441290  54.2528290  48.4015740  28.2671630  58.8759310
  48.7539560  27.6699760  58.2160680  47.5178070  27.9415860  59.0467560
  44.4879020  29.0269320  56.2829720  45.1750150  29.5738530  56.6637310
  43.7011440  29.5710050  56.3179330  36.6271420  24.6442140  51.7746800
  37.4966270  24.9266940  52.0582720  36.1361740  25.4578010  51.6595610
  43.7906230  26.0315350  55.8955080  44.2469010  26.8420600  56.1215270
  43.4394440  25.7138490  56.7273570  39.6918010  16.3753000  56.3677600
  39.5632640  16.3670900  57.3162520  38.8680030  16.7136090  56.0168610
  51.2126640  29.8302660  51.5663970  50.9864220  29.1133100  52.1588610
  50.8222840  29.5815100  50.7285720  36.9942670  33.8569520  52.3408430
  37.3540310  34.4558860  51.6865700  36.8535010  34.4029410  53.1143460
  50.7942890  27.7474600  53.2278130  50.5064590  28.2087290  54.0156010
  51.5895060  27.2872370  53.4962350  43.0111290  31.2400720  53.1582100
  43.0021390  31.9730410  52.5426610  42.0909650  30.9932300  53.2509060
  38.6117930  26.4615610  53.9028860  38.0045880  27.2014510  53.9124160
  39.0867280  26.5514970  53.0767060  51.5512750  19.5823370  54.3873310
  50.9225910  19.6869040  53.6731540  51.0564670  19.8020150  55.1767190
  45.9970890  31.3028960  51.8207290  46.0982870  31.0992950  50.8909270
  45.0972630  31.0487240  52.0255070  43.5196780  21.8609320  55.8031190
  42.8112930  22.3295660  56.2444800  43.8041260  21.2031330  56.4376380
  47.5512210  18.5859980  57.2426980  47.4279990  18.6046110  56.2936490
  48.4996770  18.6338920  57.3625380  44.6389000  33.8215280  56.5154960
  44.8930500  33.7836670  55.5934330  43.6901480  33.6948610  56.5083210
  41.7231800  20.1694400  53.1781900  42.5722330  20.6064550  53.1122090
  41.3563070  20.4814660  54.0053960  50.6441580  24.7407160  58.0913470
  49.7031720  24.7557390  58.2661160  50.9585650  23.9543120  58.5373770
  40.6223220  26.4226760  51.6517430  41.3886490  26.3108120  52.2142860
  40.6997910  25.7264730  50.9994200  39.3169980  23.8551830  52.3350320
  39.3973570  22.9079340  52.4467720  40.2089730  24.1858710  52.4410980
  52.6467160  31.9116010  59.7667730  52.7714580  32.7347180  60.2391540
  53.5132720  31.7006740  59.4191880  40.1184690  34.0047220  59.4384860
  40.8547170  33.4562680  59.7093430  40.5025610  34.8703230  59.2990850
  37.0030170  30.0720790  55.3126370  36.0769950  30.3141930  55.3031780
  37.4686600  30.8995050  55.1911120  43.2287000  33.1777530  51.2610430
  44.0215610  33.4666360  50.8092220  42.7091350  32.7469700  50.5822910
  52.2817170  32.4047660  52.6847170  51.9958680  31.9912800  51.8701350
  52.0836720  33.3335370  52.5647690  43.7464400  28.3980940  51.1252780
  43.6415040  27.7833290  51.8514160  43.5788620  27.8746830  50.3415790
  46.9867130  27.4600970  51.7294770  46.4377230  27.9070270  52.3737510
  47.6086390  26.9550220  52.2532440  42.6542250  26.4191890  53.6260070
  43.0758670  26.2531760  54.4691460  42.7793090  25.6092120  53.1315210
  45.1669890  25.4429500  50.8737170  45.6875550  24.7278520  50.5078320
  45.8138290  26.0815370  51.1737680  41.5501150  22.4925120  50.5718230
  41.3490210  21.6292480  50.9331570  41.3793200  22.4058480  49.6339830
  49.0289460  17.3033350  53.1005110  49.3091750  16.4601250  53.4564530
  48.2555190  17.5356460  53.6143860  40.3483950  19.5925740  50.5596110
  40.6509850  19.5993170  49.6515260  41.0878540  19.2423600  51.0563770
  43.5668880  18.5360360  51.5452310  43.2190880  17.8584350  50.9654760
  43.7681650  18.0749870  52.3595700  45.7317920  33.5241110  53.1638910
  46.6268710  33.8626080  53.1857670  45.7635550  32.8020520  52.5363190
  39.3714080  28.8968160  51.3925910  39.8088950  29.4397830  52.0483490
  39.8561810  28.0715110  51.4022250  36.5859880  31.6857190  58.8446170
  36.9162890  30.8178250  58.6124810  37.0150880  31.8915710  59.6751130
  41.1821800  30.0166200  56.5048140  40.8817340  29.8931170  57.4052050
  41.0759290  29.1574790  56.0963870  53.9513720  29.7962600  51.2074820
  53.1206680  29.8639250  51.6782050  54.1285550  30.6866720  50.9041680
  53.4070180  26.5410080  53.7109020  54.1689090  27.1106730  53.8168710
  53.4224550  25.9737280  54.4817330  36.9074520  25.0648010  57.9416680
  36.2523360  24.7959650  57.2976380  37.7452470  24.9552490  57.4918660
  54.4130150  27.3960180  58.5550950  54.7838980  26.6127500  58.1486920
  55.0532080  28.0849280  58.3768250  53.4589350  26.8344450  50.8681540
  53.7338190  27.7423330  50.7400760  53.2700090  26.7706980  51.8043530
  49.8564960  19.8589300  52.1635170  50.2749840  19.6720280  51.3231830
  49.5501020  19.0068350  52.4738100  53.3554690  24.7713440  55.8610970
  52.9798290  24.0041370  55.4292260  52.6257810  25.1536140  56.3485900
  36.1212600  22.2746940  53.8842010  35.2176680  22.5377140  53.7093670
  36.6053220  22.5458110  53.1041970  52.6305650  22.9970930  59.1618210
  53.1543130  22.5033580  58.5308380  53.2165070  23.1321290  59.9065780
  38.6639810  21.3312480  51.7936390  39.3731510  20.9095700  51.3083670
  37.9479750  21.3987710  51.1619740  38.3113970  17.3851810  50.8339040
  39.0342100  17.9260750  51.1520260  38.5838490  17.1115230  49.9580580
  52.1205620  22.2544280  55.1010620  52.6164740  22.0215150  55.8859500
  51.9221690  21.4156120  54.6848260  53.5492780  20.8905230  57.6348300
  53.4392060  20.7361270  58.5730570  54.3100370  20.3626170  57.3923710
  54.4383050  18.7213150  50.8754440  55.3632360  18.5894330  50.6672730
  54.4158840  18.8005970  51.8290890  54.5121540  19.4923810  53.5011150
  53.7173040  19.4268930  54.0304060  54.7164820  20.4274450  53.4896500
  51.4539960  33.5315360  57.4949540  52.0499030  33.2099930  56.8183960
  51.7118110  33.0587180  58.2862810  52.0052170  34.1810660  61.3247270
  51.5455140  34.9326470  60.9505290  51.3764630  33.4617130  61.2662070
  42.4347890  32.4898900  60.4995400  42.9512910  31.8786260  59.9743660
  43.0845270  32.9927680  60.9906410  50.9441470  17.8220690  59.9509980
  51.3849560  17.7665790  59.1031580  50.6749060  18.7378700  60.0220160
  52.8080040  17.4535930  57.9618800  52.7468440  16.5097150  57.8149820
  53.5872070  17.5616020  58.5072260  37.1132790  33.5928290  56.9242750
  36.9454830  32.9598970  57.6224640  36.2467300  33.7987690  56.5736940
  37.7360810  17.4245070  54.4274610  38.4940170  17.5373950  53.8538640
  37.2737980  18.2614270  54.3818040  44.2774620  19.5384340  57.4176920
  43.4649130  19.1641230  57.0772800  44.7816260  18.7829420  57.7198110
  48.7799600  16.2026790  58.6559990  49.3828970  16.7747000  59.1308510
  48.0392590  16.7666230  58.4333890  51.9234200  16.6048350  53.9300270
  52.1184830  17.5031800  54.1967700  51.1364070  16.3735430  54.4233220
  38.7195490  32.2861520  54.3692890  38.1943110  32.6669550  53.6654850
  38.6440070  32.9112290  55.0902600  40.1085960  17.9509120  52.9676580
  40.6378720  17.1638920  52.8384530  40.7414280  18.6300310  53.2012110
  42.3023800  17.6884260  56.0221970  41.6726540  16.9871570  56.1892100
  41.7628940  18.4488390  55.8055130  53.4760810  33.8449060  55.6906830
  53.6513000  33.1586800  55.0467750  52.7782380  34.3696110  55.2983500
  41.3188460  34.2343900  53.2442140  42.0507280  33.9503180  52.6966030
  41.5782130  33.9957180  54.1341520  40.4803250  30.3508630  53.2488470
  39.8512130  30.8193730  53.7974300  40.5951080  29.5057850  53.6834660
  47.9352970  24.4014290  39.3989670  47.8547020  23.4868900  39.1281380
  47.5217390  24.8981360  38.6929380  46.0671010  26.1793310  41.2798940
  45.2913110  25.6993750  41.5697510  46.7183940  25.4998960  41.1055100
  40.0836840  26.4913120  42.1574700  39.2521720  26.2361830  42.5571210
  40.6917820  26.5623890  42.8932620  50.0878440  30.5853500  40.0598070
  49.6259970  29.8140740  40.3885240  50.9003990  30.6119570  40.5650520
  40.0638100  30.5253210  42.3532720  40.3666140  29.6350950  42.1742940
  40.8081690  31.0823430  42.1254970  38.4928790  21.4515010  35.9417090
  37.6045490  21.7930980  35.8396970  38.7769980  21.2515330  35.0497920
  36.4561800  24.0520660  41.8256790  37.0277910  23.2842860  41.8260430
  36.4563340  24.3509420  40.9163400  46.3141750  32.8711510  39.6802060
  45.6953190  33.3269010  39.1096500  47.1693530  33.0262970  39.2791760
  45.5080000  28.8550500  41.2869100  45.4388280  27.9140440  41.1258230
  46.2699860  28.9451910  41.8591670  37.6986670  19.4605020  43.6125720
  37.5189510  18.5630770  43.8928480  37.2966750  20.0076890  44.2872670
  46.5385170  21.6620880  41.5138030  46.9149990  20.7892760  41.4011700
  46.4404680  21.9979580  40.6228470  40.6690180  20.0346510  36.9755470
  40.7756930  20.9350240  37.2824230  39.7582540  19.9864480  36.6850120
  50.3209290  19.1571320  38.4466370  51.1418910  18.6667890  38.4891850
  50.3543370  19.7468980  39.1998210  38.3173340  21.9565520  42.2208060
  38.9983450  22.2203890  42.8395460  38.0021390  21.1166390  42.5546070
  42.5097910  23.0032880  41.3080650  43.0176130  23.5013850  41.9485670
  43.0411150  22.2268080  41.1320010  54.6108840  21.1738070  45.0110000
  53.9061010  21.5619780  44.4925110  54.8766760  21.8688360  45.6130930
  40.7934010  17.6431440  45.5744070  40.7952450  18.1603830  44.7689970
  39.9638320  17.1661620  45.5514000  47.1805100  27.7550750  37.0733970
  46.5622370  28.2200200  36.5096690  47.6928350  28.4478230  37.4903480
  42.0436860  27.2826620  43.7517570  41.7106240  27.9095540  44.3938640
  42.2203540  27.8088500  42.9719240  50.5570770  21.0971700  41.2193910
  49.8526340  21.3856590  41.7997020  50.9182930  21.9071810  40.8593470
  40.4749340  19.3541400  43.5814520  40.8166150  20.1983450  43.2868390
  39.5365150  19.5025140  43.6979860  41.2555960  29.2507420  45.5666750
  41.8729960  29.9258500  45.2851200  40.3949080  29.6595400  45.4754250
  36.5488300  28.4407280  34.4473600  36.1716280  28.9294380  33.7158500
  36.8061370  29.1132560  35.0780130  52.1733550  30.7146830  43.4821390
  51.4897070  31.3845940  43.4738060  52.7127840  30.9127480  42.7166250
  53.6257690  20.5426490  41.6103120  52.6782600  20.5765470  41.7418550
  53.9507680  21.3565440  41.9952480  44.1577230  16.8423670  39.9059110
  44.4652210  16.2870560  39.1894610  43.2277930  16.9768130  39.7232100
  49.7092290  32.5590960  42.1966570  49.7219450  32.1553250  41.3288830
  49.1567510  33.3338250  42.0928000  51.0037710  29.2807180  37.2856740
  50.8934040  28.3381510  37.4106160  51.0005960  29.6422820  38.1719500
  49.1077730  27.4620800  43.5249180  49.5246520  27.2480910  42.6902640
  49.8317550  27.7193590  44.0957800  46.5457990  24.9072500  36.6419230
  45.6187270  24.8409880  36.8707700  46.6982810  25.8452630  36.5274470
  46.5327070  21.1789500  33.6386390  45.5930740  21.3403460  33.7238850
  46.8510330  21.8975180  33.0922380  53.0539830  25.8608020  43.6165420
  52.2258460  25.9301110  43.1415550  53.6490310  26.4462330  43.1481250
  50.5755280  26.4692800  37.1454480  49.9567700  26.1312350  36.4980780
  50.5579730  25.8252560  37.8533670  50.0181840  22.6477340  44.5620290
  49.6053020  23.4731050  44.8160280  49.2857790  22.0622380  44.3696650
  42.1514630  25.4337240  39.4238960  41.7471630  24.7214490  38.9284860
  42.2377750  25.0890480  40.3127000  42.6196330  29.1204800  41.5878170
  42.3224620  28.5150270  40.9085950  43.5696150  29.1582110  41.4767530
  40.8643250  22.2080450  43.2038000  41.4157840  22.3175790  42.4291250
  41.3786760  22.5818050  43.9193230  50.7081940  32.6936670  45.2501270
  50.2312500  33.5008860  45.0573880  50.0243730  32.0415000  45.4027480
  41.7114760  28.8586490  48.2385970  40.8143290  29.0826460  48.4859370
  41.7367630  28.9821430  47.2897370  48.7519980  25.7079610  34.1527230
  49.1913260  24.8702040  34.0065050  49.4648400  26.3409010  34.2391370
  40.5385980  25.7299810  46.8143340  40.3993750  26.6022610  47.1830740
  39.6567340  25.3872620  46.6691280  46.8615360  30.6475680  38.1208470
  47.3011270  31.3900010  37.7063860  46.8002250  30.8902250  39.0447430
  42.3366330  31.6721510  49.0228490  42.3081760  32.0764460  48.1556920
  42.1731300  30.7431870  48.8600090  52.3337120  16.9622420  32.4668270
  52.0209780  17.0549250  33.3667340  53.0949590  17.5403450  32.4165700
  38.8519260  24.3282220  36.9245610  38.7316860  25.0544310  36.3126880
  38.5420150  23.5585130  36.4473520  54.2881150  32.4548610  50.3192660
  54.7640870  32.9331500  50.9981740  54.9088310  32.3866100  49.5938160
  36.4904630  27.4997360  42.7314250  36.5685050  27.6346130  41.7869970
  37.1046310  26.7913250  42.9242370  37.7352260  29.1997550  39.1420430
  37.3280340  29.3412140  38.2874030  38.6265270  28.9157710  38.9391640
  53.6914400  29.6461460  47.4792670  53.8177460  29.4073340  46.5609850
  53.7335780  28.8146000  47.9514750  47.5531140  33.3489460  46.0487480
  48.0675810  33.2597470  46.8509910  46.7100220  33.6949160  46.3415390
  49.5285540  33.6344800  35.4771480  49.3686680  33.3447740  36.3753310
  49.3632250  32.8584930  34.9416710  42.0073920  33.4143330  37.2543100
  41.8316400  32.4978870  37.0410900  41.1529660  33.7730620  37.4940900
  49.2311670  31.1432360  34.0369480  48.5376830  31.1409650  33.3771760
  49.9734530  30.7191680  33.6063650  48.7961600  32.7695070  38.1117970
  49.2518550  31.9884450  38.4256590  49.1354120  33.4801890  38.6559150
  53.5438410  21.6993920  48.4442410  52.9282680  22.2073590  47.9157870
  53.2234830  20.7992250  48.3868350  36.5464150  28.5411530  45.2708710
  36.7095190  28.0716890  44.4528080  37.0116600  28.0335090  45.9357550
  41.3182920  17.6717290  40.3069280  40.8751070  18.4526830  39.9753800
  41.8767910  17.9947180  41.0140220  45.6052730  20.5385810  45.9104600
  45.1432100  20.7468830  46.7224540  45.2030840  19.7245160  45.6075270
  50.6057240  21.7594760  47.0401260  49.7550830  21.4600510  47.3610330
  50.4459030  22.0036770  46.1285080  47.7006950  23.2596510  49.1400050
  48.0260360  22.4260260  48.8002280  48.4887280  23.7825030  49.2878380
  44.4341740  17.2927990  35.1875110  43.8095920  17.2887860  35.9128420
  44.3471860  16.4258950  34.7911080  43.3558820  18.2164620  42.1658880
  43.6531150  19.1227450  42.0850900  43.9044380  17.7283400  41.5518450
  41.1097140  22.7950860  38.0350530  40.8838060  22.5788030  38.9397150
  40.3289670  23.2279320  37.6896500  48.3394900  22.8014230  36.6341180
  47.7403790  23.5250030  36.4504800  48.8874510  22.7391010  35.8517630
  43.5496350  23.6936440  48.7010800  43.4539950  22.7531170  48.5511200
  44.3928330  23.9151510  48.3058870  46.9459770  21.4377770  38.6644460
  47.3389340  21.7549970  37.8513150  47.3076620  20.5589650  38.7788980
  38.6806890  20.1050110  46.8544580  38.2870280  20.9525320  47.0617360
  37.9925290  19.4676480  47.0453220  45.2551940  20.1885080  49.9241320
  44.5650260  19.9957280  50.5587410  45.9984240  20.4719720  50.4565620
  35.9823940  18.0278570  40.8874660  35.6936990  18.5981430  41.5999640
  36.7269700  17.5483020  41.2505890  36.1694170  21.9698690  32.0977380
  36.0868840  22.9129450  32.2392370  35.8177230  21.8273600  31.2189730
  47.5314910  24.0283520  42.7595240  46.7996030  24.5370330  43.1085340
  47.1339250  23.2113500  42.4584020  43.9692300  20.7037720  41.1647730
  43.9728360  20.2627670  40.3152270  44.8643420  21.0255050  41.2719550
  39.8194680  20.5864210  40.1241940  39.4794730  21.0639440  40.8808990
  39.0572000  20.1329330  39.7643040  44.0312450  21.7049800  34.1554490
  44.1525270  21.6636280  35.1040310  43.6460960  22.5673950  34.0001220
  47.9940820  19.4817200  42.1718180  48.0113560  19.9325850  43.0160030
  47.7456400  18.5822840  42.3851620  43.0433950  24.0150940  33.5537790
  42.4750850  23.5669190  32.9273700  43.7522950  24.3743720  33.0202940
  51.4211570  16.8949380  48.0104560  51.7457340  16.1639040  48.5362540
  51.4568080  16.5763020  47.1085550  38.1203130  27.9162960  47.4304520
  37.7357920  27.2756630  48.0287480  38.4315320  28.6199080  47.9999250
  44.2700270  24.7639500  42.9113140  44.6370400  24.2898070  43.6574480
  44.0805330  25.6381070  43.2521480  37.1340760  19.5083190  39.0406610
  36.8487680  19.1438860  39.8785230  37.0719620  18.7763650  38.4269750
  42.0599640  23.8048140  45.2297350  41.7556710  24.6840120  45.4547710
  43.0146100  23.8647930  45.2654790  40.5881430  28.0109130  35.8264200
  39.8143690  27.4706750  35.6662920  41.3176060  27.4915740  35.4881960
  51.3469410  27.0074490  41.6190590  52.0668530  27.5029780  41.2286700
  51.1451230  26.3292380  40.9744460  46.8079350  18.4012450  35.7619980
  45.9943960  17.9025620  35.6865290  46.6141300  19.2410700  35.3456330
  46.7288210  27.0783550  47.5059590  46.6625520  26.1579220  47.2517180
  46.0993350  27.1758990  48.2204230  49.5227740  22.7732100  34.0582140
  50.4107360  23.0849330  33.8833480  49.4932830  21.9004350  33.6662720
  40.6318830  27.6789510  39.4643010  41.1497500  26.8757770  39.4099900
  40.1802850  27.6168650  40.3059840  45.5188330  28.9455790  34.7370310
  45.8604030  29.6898020  34.2413630  44.6901040  29.2586910  35.0995140
  38.1163370  24.6450880  46.3768710  37.7578310  25.3104730  46.9642050
  37.8217930  23.8134430  46.7481330  41.3176490  25.1035120  49.2608260
  41.0176630  25.2492300  48.3636080  42.0887730  24.5440410  49.1681650
  46.6604940  29.9004120  47.2563390  46.6749480  28.9685080  47.0382300
  45.9530040  29.9863880  47.8953160  51.7942010  24.0843940  33.5262000
  51.7105730  24.5158160  32.6758440  52.5136200  24.5442290  33.9588820
  52.8716150  26.5411460  46.6031970  52.1464340  27.1340240  46.4061360
  53.3991610  26.5335000  45.8045340  52.8229260  30.9386200  36.2544130
  52.1805420  30.2841820  36.5287850  52.4359920  31.3441290  35.4784800
  48.4015740  28.2671630  40.1015820  48.7539560  27.6699760  39.4417190
  47.5178070  27.9415860  40.2724070  44.4879020  29.0269320  37.5086230
  45.1750150  29.5738530  37.8893820  43.7011440  29.5710050  37.5435840
  36.6271420  24.6442140  33.0003310  37.4966270  24.9266940  33.2839230
  36.1361740  25.4578010  32.8852120  43.7906230  26.0315350  37.1211590
  44.2469010  26.8420600  37.3471780  43.4394440  25.7138490  37.9530080
  46.0938840  31.5421690  44.3503890  46.7381060  31.7481070  45.0277310
  46.4568280  30.7810090  43.8974740  39.6918010  16.3753000  37.5934110
  39.5632640  16.3670900  38.5419030  38.8680030  16.7136090  37.2425120
  47.3670920  29.5454040  43.0681340  48.0093150  28.8447200  43.1813510
  47.8920270  30.3252480  42.8878230  51.2126640  29.8302660  32.7920480
  50.9864220  29.1133100  33.3845120  50.8222840  29.5815100  31.9542230
  49.1408540  30.3448940  46.2717400  49.4764780  30.9315630  46.9495320
  48.2208880  30.2141650  46.5015190  36.6911940  18.1344120  47.0540810
  35.9770460  18.3341040  47.6593420  37.1106980  17.3583690  47.4255610
  50.7942890  27.7474600  34.4534640  50.5064590  28.2087290  35.2412520
  51.5895060  27.2872370  34.7218860  36.9784530  32.1224380  48.0407340
  37.0875650  31.1819120  47.9002730  36.3265090  32.3879130  47.3921070
  44.9697120  30.3940270  49.4405460  44.6493990  29.6749510  49.9851150
  44.2955480  31.0695340  49.5141520  43.0111290  31.2400720  34.3838610
  43.0021390  31.9730410  33.7683120  42.0909650  30.9932300  34.4765570
  38.6117930  26.4615610  35.1285370  38.0045880  27.2014510  35.1380670
  39.0867280  26.5514970  34.3023570  48.1850720  20.6266430  44.8042260
  48.5531540  19.8061640  45.1321830  47.3248920  20.6868320  45.2197910
  51.5512750  19.5823370  35.6129820  50.9225910  19.6869040  34.8988050
  51.0564670  19.8020150  36.4023700  45.9970890  31.3028960  33.0463800
  46.0982870  31.0992950  32.1165780  45.0972630  31.0487240  33.2511580
  43.5196780  21.8609320  37.0287700  42.8112930  22.3295660  37.4701310
  43.8041260  21.2031330  37.6632890  45.1452710  23.2806020  45.0280230
  45.6437960  23.7551840  45.6932080  45.2875660  22.3569540  45.2350260
  47.5512210  18.5859980  38.4683490  47.4279990  18.6046110  37.5193000
  48.4996770  18.6338920  38.5881890  44.6389000  33.8215280  37.7411470
  44.8930500  33.7836670  36.8190840  43.6901480  33.6948610  37.7339720
  41.7231800  20.1694400  34.4038410  42.5722330  20.6064550  34.3378600
  41.3563070  20.4814660  35.2310470  52.3519570  19.4973980  45.8708620
  51.8493170  20.2379380  46.2102430  53.1676230  19.8857980  45.5545410
  50.6441580  24.7407160  39.3169980  49.7031720  24.7557390  39.4917670
  50.9585650  23.9543120  39.7630280  40.6223220  26.4226760  32.8773940
  41.3886490  26.3108120  33.4399370  40.6997910  25.7264730  32.2250710
  39.3169980  23.8551830  33.5606830  39.3973570  22.9079340  33.6724230
  40.2089730  24.1858710  33.6667490  52.6467160  31.9116010  40.9924240
  52.7714580  32.7347180  41.4648050  53.5132720  31.7006740  40.6448390
  40.1184690  34.0047220  40.6641370  40.8547170  33.4562680  40.9349940
  40.5025610  34.8703230  40.5247360  37.0030170  30.0720790  36.5382880
  36.0769950  30.3141930  36.5288290  37.4686600  30.8995050  36.4167630
  39.1242970  33.1893290  49.8526950  39.9255700  33.5105340  50.2662350
  38.6094790  32.8288870  50.5746860  43.2287000  33.1777530  32.4866940
  44.0215610  33.4666360  32.0348730  42.7091350  32.7469700  31.8079420
  47.9607600  29.2973160  49.8002360  47.3545760  29.3204760  49.0598110
  47.6561710  28.5656200  50.3369610  49.3907970  33.0253450  48.4111770
  50.3429720  32.9411470  48.3612010  49.2436190  33.6895160  49.0845560
  52.2817170  32.4047660  33.9103680  51.9958680  31.9912800  33.0957860
  52.0836720  33.3335370  33.7904200  36.8440780  25.6766750  48.7963000
  37.3479800  25.0974030  49.3679230  36.1048200  25.9606980  49.3339370
  43.7464400  28.3980940  32.3509290  43.6415040  27.7833290  33.0770670
  43.5788620  27.8746830  31.5672300  43.8978720  27.0837740  48.3298520
  43.1324390  27.6522740  48.2453190  44.0794680  26.7913950  47.4366750
  46.9867130  27.4600970  32.9551280  46.4377230  27.9070270  33.5994020
  47.6086390  26.9550220  33.4788950  51.0402070  28.8143070  48.8873540
  51.7811540  29.1518830  48.3841000  50.2774750  28.9835130  48.3343310
  38.8763860  23.8196340  49.6913070  38.9169200  23.5210210  50.5998300
  39.7309360  24.2203950  49.5320590  42.6542250  26.4191890  34.8516580
  43.0758670  26.2531760  35.6947970  42.7793090  25.6092120  34.3571720
  40.8169670  22.3988440  47.6587560  40.2866130  21.9079390  47.0310900
  41.4857740  22.8272640  47.1245490  45.1669890  25.4429500  32.0993680
  45.6875550  24.7278520  31.7334830  45.8138290  26.0815370  32.3994190
  49.7147730  26.8657900  47.4228750  50.1288750  27.0202980  48.2719170
  48.7798730  26.9913120  47.5854530  50.1869900  24.2054060  49.4267900
  50.7690670  23.4506380  49.3388380  50.3631670  24.7361500  48.6499380
  41.3041970  19.3650810  47.7384850  41.2098840  18.7471560  47.0135720
  40.7239360  20.0917100  47.5114760  44.0703410  17.9224050  44.7712240
  43.6220710  17.9448310  43.9257790  43.4368610  17.5243070  45.3682540
  44.4762960  26.8178380  45.3924680  44.8951070  27.6611110  45.2200920
  43.5571590  26.9550420  45.1631460  46.8126860  24.5494560  46.7762520
  46.9323070  23.9535700  47.5157360  47.6720860  24.5864250  46.3563820
  49.1514760  25.1031750  45.3525030  48.6249980  25.6274370  44.7490170
  49.4946100  25.7359140  45.9834760  41.5501150  22.4925120  31.7974740
  41.3490210  21.6292480  32.1588080  41.3793200  22.4058480  30.8596340
  42.3270380  33.1231390  46.5082410  41.7891470  33.8477450  46.1891110
  42.5804340  32.6461730  45.7179750  43.5795630  21.0915910  48.0338340
  44.1695320  20.7831760  48.7216160  42.7615870  20.6195660  48.1898240
  48.3989060  20.7081720  48.2671360  47.7104580  20.0463260  48.2021350
  49.1195080  20.2619990  48.7119820  49.0289460  17.3033350  34.3261620
  49.3091750  16.4601250  34.6821040  48.2555190  17.5356460  34.8400370
  40.3483950  19.5925740  31.7852620  40.6509850  19.5993170  30.8771770
  41.0878540  19.2423600  32.2820280  45.1832590  34.3582600  46.7669060
  45.1091290  35.2617740  47.0741430  44.2811430  34.0394500  46.7391130
  43.5668880  18.5360360  32.7708820  43.2190880  17.8584350  32.1911270
  43.7681650  18.0749870  33.5852210  45.7317920  33.5241110  34.3895420
  46.6268710  33.8626080  34.4114180  45.7635550  32.8020520  33.7619700
  39.3714080  28.8968160  32.6182420  39.8088950  29.4397830  33.2740000
  39.8561810  28.0715110  32.6278760  36.5859880  31.6857190  40.0702680
  36.9162890  30.8178250  39.8381320  37.0150880  31.8915710  40.9007640
  41.1821800  30.0166200  37.7304650  40.8817340  29.8931170  38.6308560
  41.0759290  29.1574790  37.3220380  37.0750090  32.5527780  42.8084310
  36.6381080  32.7328580  43.6408460  37.6427770  33.3102400  42.6666030
  52.7112270  32.0544780  47.0961620  52.1114260  32.1137340  46.3525540
  52.8406170  31.1149760  47.2258470  53.9513720  29.7962600  32.4331330
  53.1206680  29.8639250  32.9038560  54.1285550  30.6866720  32.1298190
  53.4070180  26.5410080  34.9365530  54.1689090  27.1106730  35.0425220
  53.4224550  25.9737280  35.7073840  36.9074520  25.0648010  39.1673190
  36.2523360  24.7959650  38.5232890  37.7452470  24.9552490  38.7175170
  54.4130150  27.3960180  39.7807460  54.7838980  26.6127500  39.3743430
  55.0532080  28.0849280  39.6024760  51.3963910  28.7796760  45.1937780
  50.5823750  29.2093920  45.4563570  51.8038110  29.3915170  44.5806830
  53.4589350  26.8344450  32.0938050  53.7338190  27.7423330  31.9657270
  53.2700090  26.7706980  33.0300040  49.8564960  19.8589300  33.3891680
  50.2749840  19.6720280  32.5488340  49.5501020  19.0068350  33.6994610
  53.3554690  24.7713440  37.0867480  52.9798290  24.0041370  36.6548770
  52.6257810  25.1536140  37.5742410  37.9450450  25.4500580  43.7076530
  38.3123490  25.3627980  44.5872550  37.3761270  24.6867130  43.6083390
  52.7454310  23.9184960  46.7207000  52.5140400  23.6897710  45.8204950
  53.0058860  24.8384510  46.6751890  37.4966450  22.3609670  47.6134950
  36.6022500  22.3276430  47.9528660  38.0364000  22.5596460  48.3786200
  51.1842380  19.1441390  49.4986700  52.0612560  19.1524790  49.8820700
  51.1963220  18.4072230  48.8879050  36.1212600  22.2746940  35.1098520
  35.2176680  22.5377140  34.9350180  36.6053220  22.5458110  34.3298480
  52.6305650  22.9970930  40.3874720  53.1543130  22.5033580  39.7564890
  53.2165070  23.1321290  41.1322290  52.8095370  23.0810800  43.9094270
  51.8598080  23.0474340  44.0239260  52.9908380  23.9910910  43.6744040
  38.6639810  21.3312480  33.0192900  39.3731510  20.9095700  32.5340180
  37.9479750  21.3987710  32.3876250  38.3113970  17.3851810  32.0595550
  39.0342100  17.9260750  32.3776770  38.5838490  17.1115230  31.1837090
  52.1205620  22.2544280  36.3267130  52.6164740  22.0215150  37.1116010
  51.9221690  21.4156120  35.9104770  38.0006160  16.6358000  41.9618170
  38.6482350  16.0855380  41.5213330  38.4208000  16.8901150  42.7833980
  53.5492780  20.8905230  38.8604810  53.4392060  20.7361270  39.7987080
  54.3100370  20.3626170  38.6180220  51.8958500  16.8299360  45.3187810
  52.5330720  17.4433500  45.6847000  52.0433390  16.8660020  44.3737040
  54.4383050  18.7213150  32.1010950  55.3632360  18.5894330  31.8929240
  54.4158840  18.8005970  33.0547400  54.5121540  19.4923810  34.7267660
  53.7173040  19.4268930  35.2560570  54.7164820  20.4274450  34.7153010
  51.4539960  33.5315360  38.7206050  52.0499030  33.2099930  38.0440470
  51.7118110  33.0587180  39.5119320  37.7538160  16.7913670  44.7043490
  37.4052980  17.2477490  45.4701670  37.4225860  15.8970800  44.7865920
  39.3602530  29.9633270  48.8696680  39.3172160  29.5926180  49.7511140
  39.4913540  30.9010840  49.0098500  43.0608560  31.5192860  44.4706400
  42.8199920  31.7867420  43.5836920  44.0011200  31.6898590  44.5257260
  45.2662980  17.9825550  48.2262910  45.2051870  18.5747380  48.9758320
  46.2063360  17.8751510  48.0813170  47.9037540  17.6395610  47.8655200
  48.5177950  17.9574900  47.2036280  48.4487100  17.1544200  48.4851060
  54.3212720  33.5387240  45.2717040  53.8271000  33.9356110  44.5544170
  53.7126010  32.9136450  45.6654320  38.4258800  16.3189870  47.9794260
  38.9741790  16.1377920  47.2160370  38.4914110  15.5283980  48.5150570
  39.1990560  32.9095520  45.9894460  38.6050880  32.7780220  46.7284500
  39.1914400  32.0733660  45.5236560  48.6445580  16.2027750  44.1924490
  47.7705420  16.5362860  43.9897420  48.5356330  15.7300930  45.0176360
  49.5517560  18.4098620  45.5766210  49.2230920  17.5950380  45.1967940
  50.4999860  18.3668430  45.4531900  52.0052170  34.1810660  42.5503780
  51.5455140  34.9326470  42.1761800  51.3764630  33.4617130  42.4918580
  38.8302790  30.2753900  44.9402500  38.1036850  29.6559190  44.8728450
  38.8911940  30.6694510  44.0700580  42.4347890  32.4898900  41.7251910
  42.9512910  31.8786260  41.2000170  43.0845270  32.9927680  42.2162920
  45.1743390  33.3807390  42.5520890  45.4621200  33.1261690  41.6753900
  45.6866610  32.8284750  43.1426460  46.3920400  17.1197590  43.1317400
  45.6092190  17.5943090  43.4114160  46.0983330  16.2152420  43.0230580
  50.9441470  17.8220690  41.1766490  51.3849560  17.7665790  40.3288090
  50.6749060  18.7378700  41.2476670  52.8080040  17.4535930  39.1875310
  52.7468440  16.5097150  39.0406330  53.5872070  17.5616020  39.7328770
  37.1132790  33.5928290  38.1499260  36.9454830  32.9598970  38.8481150
  36.2467300  33.7987690  37.7993450  37.7360810  17.4245070  35.6531120
  38.4940170  17.5373950  35.0795150  37.2737980  18.2614270  35.6074550
  44.2774620  19.5384340  38.6433430  43.4649130  19.1641230  38.3029310
  44.7816260  18.7829420  38.9454620  48.7799600  16.2026790  39.8816500
  49.3828970  16.7747000  40.3565020  48.0392590  16.7666230  39.6590400
  51.9234200  16.6048350  35.1556780  52.1184830  17.5031800  35.4224210
  51.1364070  16.3735430  35.6489730  38.7195490  32.2861520  35.5949400
  38.1943110  32.6669550  34.8911360  38.6440070  32.9112290  36.3159110
  40.1085960  17.9509120  34.1933090  40.6378720  17.1638920  34.0641040
  40.7414280  18.6300310  34.4268620  42.3023800  17.6884260  37.2478480
  41.6726540  16.9871570  37.4148610  41.7628940  18.4488390  37.0311640
  45.2415750  34.3023490  49.9189090  46.1683060  34.0667760  49.9625050
  45.2266180  35.1295490  49.4375120  53.4760810  33.8449060  36.9163340
  53.6513000  33.1586800  36.2724260  52.7782380  34.3696110  36.5240010
  42.4279360  16.9668240  49.6830970  42.1463630  17.4701840  48.9191790
  42.8099060  16.1689990  49.3173100  40.4803250  30.3508630  34.4744980
  39.8512130  30.8193730  35.0230810  40.5951080  29.5057850  34.9091170
  49.0294820  16.3821820  50.2611440  48.9160270  16.7016430  51.1562960
  49.8464560  16.7834330  49.9648720  51.8093310  33.5293350  49.7430130
  52.6018630  33.0342580  49.5356090  52.1026460  34.2083490  50.3505740
  47.9352970  24.4014290  20.6246180  47.8547020  23.4868900  20.3537890
  47.5217390  24.8981360  19.9185890  46.0671010  26.1793310  22.5055450
  45.2913110  25.6993750  22.7954020  46.7183940  25.4998960  22.3311610
  40.0836840  26.4913120  23.3831210  39.2521720  26.2361830  23.7827720
  40.6917820  26.5623890  24.1189130  50.0878440  30.5853500  21.2854580
  49.6259970  29.8140740  21.6141750  50.9003990  30.6119570  21.7907030
  40.0638100  30.5253210  23.5789230  40.3666140  29.6350950  23.3999450
  40.8081690  31.0823430  23.3511480  38.4928790  21.4515010  17.1673600
  37.6045490  21.7930980  17.0653480  38.7769980  21.2515330  16.2754430
  36.4561800  24.0520660  23.0513300  37.0277910  23.2842860  23.0516940
  36.4563340  24.3509420  22.1419910  46.3141750  32.8711510  20.9058570
  45.6953190  33.3269010  20.3353010  47.1693530  33.0262970  20.5048270
  45.5080000  28.8550500  22.5125610  45.4388280  27.9140440  22.3514740
  46.2699860  28.9451910  23.0848180  37.6986670  19.4605020  24.8382230
  37.5189510  18.5630770  25.1184990  37.2966750  20.0076890  25.5129180
  46.5385170  21.6620880  22.7394540  46.9149990  20.7892760  22.6268210
  46.4404680  21.9979580  21.8484980  40.6690180  20.0346510  18.2011980
  40.7756930  20.9350240  18.5080740  39.7582540  19.9864480  17.9106630
  50.3209290  19.1571320  19.6722880  51.1418910  18.6667890  19.7148360
  50.3543370  19.7468980  20.4254720  38.3173340  21.9565520  23.4464570
  38.9983450  22.2203890  24.0651970  38.0021390  21.1166390  23.7802580
  42.5097910  23.0032880  22.5337160  43.0176130  23.5013850  23.1742180
  43.0411150  22.2268080  22.3576520  54.6108840  21.1738070  26.2366510
  53.9061010  21.5619780  25.7181620  54.8766760  21.8688360  26.8387440
  40.7934010  17.6431440  26.8000580  40.7952450  18.1603830  25.9946480
  39.9638320  17.1661620  26.7770510  47.1805100  27.7550750  18.2990480
  46.5622370  28.2200200  17.7353200  47.6928350  28.4478230  18.7159990
  42.0436860  27.2826620  24.9774080  41.7106240  27.9095540  25.6195150
  42.2203540  27.8088500  24.1975750  50.5570770  21.0971700  22.4450420
  49.8526340  21.3856590  23.0253530  50.9182930  21.9071810  22.0849980
  40.4749340  19.3541400  24.8071030  40.8166150  20.1983450  24.5124900
  39.5365150  19.5025140  24.9236370  41.2555960  29.2507420  26.7923260
  41.8729960  29.9258500  26.5107710  40.3949080  29.6595400  26.7010760
  36.5488300  28.4407280  15.6730110  36.1716280  28.9294380  14.9415010
  36.8061370  29.1132560  16.3036640  52.1733550  30.7146830  24.7077900
  51.4897070  31.3845940  24.6994570  52.7127840  30.9127480  23.9422760
  53.6257690  20.5426490  22.8359630  52.6782600  20.5765470  22.9675060
  53.9507680  21.3565440  23.2208990  44.1577230  16.8423670  21.1315620
  44.4652210  16.2870560  20.4151120  43.2277930  16.9768130  20.9488610
  49.7092290  32.5590960  23.4223080  49.7219450  32.1553250  22.5545340
  49.1567510  33.3338250  23.3184510  51.0037710  29.2807180  18.5113250
  50.8934040  28.3381510  18.6362670  51.0005960  29.6422820  19.3976010
  49.1077730  27.4620800  24.7505690  49.5246520  27.2480910  23.9159150
  49.8317550  27.7193590  25.3214310  46.5457990  24.9072500  17.8675740
  45.6187270  24.8409880  18.0964210  46.6982810  25.8452630  17.7530980
  46.5327070  21.1789500  14.8642900  45.5930740  21.3403460  14.9495360
  46.8510330  21.8975180  14.3178890  53.0539830  25.8608020  24.8421930
  52.2258460  25.9301110  24.3672060  53.6490310  26.4462330  24.3737760
  50.5755280  26.4692800  18.3710990  49.9567700  26.1312350  17.7237290
  50.5579730  25.8252560  19.0790180  50.0181840  22.6477340  25.7876800
  49.6053020  23.4731050  26.0416790  49.2857790  22.0622380  25.5953160
  42.1514630  25.4337240  20.6495470  41.7471630  24.7214490  20.1541370
  42.2377750  25.0890480  21.5383510  42.6196330  29.1204800  22.8134680
  42.3224620  28.5150270  22.1342460  43.5696150  29.1582110  22.7024040
  40.8643250  22.2080450  24.4294510  41.4157840  22.3175790  23.6547760
  41.3786760  22.5818050  25.1449740  50.7081940  32.6936670  26.4757780
  50.2312500  33.5008860  26.2830390  50.0243730  32.0415000  26.6283990
  41.7114760  28.8586490  29.4642480  40.8143290  29.0826460  29.7115880
  41.7367630  28.9821430  28.5153880  48.7519980  25.7079610  15.3783740
  49.1913260  24.8702040  15.2321560  49.4648400  26.3409010  15.4647880
  40.5385980  25.7299810  28.0399850  40.3993750  26.6022610  28.4087250
  39.6567340  25.3872620  27.8947790  46.8615360  30.6475680  19.3464980
  47.3011270  31.3900010  18.9320370  46.8002250  30.8902250  20.2703940
  42.3366330  31.6721510  30.2485000  42.3081760  32.0764460  29.3813430
  42.1731300  30.7431870  30.0856600  52.3337120  16.9622420  13.6924780
  52.0209780  17.0549250  14.5923850  53.0949590  17.5403450  13.6422210
  38.8519260  24.3282220  18.1502120  38.7316860  25.0544310  17.5383390
  38.5420150  23.5585130  17.6730030  54.2881150  32.4548610  31.5449170
  54.7640870  32.9331500  32.2238250  54.9088310  32.3866100  30.8194670
  36.4904630  27.4997360  23.9570760  36.5685050  27.6346130  23.0126480
  37.1046310  26.7913250  24.1498880  37.7352260  29.1997550  20.3676940
  37.3280340  29.3412140  19.5130540  38.6265270  28.9157710  20.1648150
  53.6914400  29.6461460  28.7049180  53.8177460  29.4073340  27.7866360
  53.7335780  28.8146000  29.1771260  47.5531140  33.3489460  27.2743990
  48.0675810  33.2597470  28.0766420  46.7100220  33.6949160  27.5671900
  49.5285540  33.6344800  16.7027990  49.3686680  33.3447740  17.6009820
  49.3632250  32.8584930  16.1673220  42.0073920  33.4143330  18.4799610
  41.8316400  32.4978870  18.2667410  41.1529660  33.7730620  18.7197410
  49.2311670  31.1432360  15.2625990  48.5376830  31.1409650  14.6028270
  49.9734530  30.7191680  14.8320160  48.7961600  32.7695070  19.3374480
  49.2518550  31.9884450  19.6513100  49.1354120  33.4801890  19.8815660
  53.5438410  21.6993920  29.6698920  52.9282680  22.2073590  29.1414380
  53.2234830  20.7992250  29.6124860  36.5464150  28.5411530  26.4965220
  36.7095190  28.0716890  25.6784590  37.0116600  28.0335090  27.1614060
  41.3182920  17.6717290  21.5325790  40.8751070  18.4526830  21.2010310
  41.8767910  17.9947180  22.2396730  45.6052730  20.5385810  27.1361110
  45.1432100  20.7468830  27.9481050  45.2030840  19.7245160  26.8331780
  50.6057240  21.7594760  28.2657770  49.7550830  21.4600510  28.5866840
  50.4459030  22.0036770  27.3541590  47.7006950  23.2596510  30.3656560
  48.0260360  22.4260260  30.0258790  48.4887280  23.7825030  30.5134890
  44.4341740  17.2927990  16.4131620  43.8095920  17.2887860  17.1384930
  44.3471860  16.4258950  16.0167590  43.3558820  18.2164620  23.3915390
  43.6531150  19.1227450  23.3107410  43.9044380  17.7283400  22.7774960
  41.1097140  22.7950860  19.2607040  40.8838060  22.5788030  20.1653660
  40.3289670  23.2279320  18.9153010  48.3394900  22.8014230  17.8597690
  47.7403790  23.5250030  17.6761310  48.8874510  22.7391010  17.0774140
  43.5496350  23.6936440  29.9267310  43.4539950  22.7531170  29.7767710
  44.3928330  23.9151510  29.5315380  46.9459770  21.4377770  19.8900970
  47.3389340  21.7549970  19.0769660  47.3076620  20.5589650  20.0045490
  38.6806890  20.1050110  28.0801090  38.2870280  20.9525320  28.2873870
  37.9925290  19.4676480  28.2709730  45.2551940  20.1885080  31.1497830
  44.5650260  19.9957280  31.7843920  45.9984240  20.4719720  31.6822130
  35.9823940  18.0278570  22.1131170  35.6936990  18.5981430  22.8256150
  36.7269700  17.5483020  22.4762400  36.1694170  21.9698690  13.3233890
  36.0868840  22.9129450  13.4648880  35.8177230  21.8273600  12.4446240
  47.5314910  24.0283520  23.9851750  46.7996030  24.5370330  24.3341850
  47.1339250  23.2113500  23.6840530  43.9692300  20.7037720  22.3904240
  43.9728360  20.2627670  21.5408780  44.8643420  21.0255050  22.4976060
  39.8194680  20.5864210  21.3498450  39.4794730  21.0639440  22.1065500
  39.0572000  20.1329330  20.9899550  44.0312450  21.7049800  15.3811000
  44.1525270  21.6636280  16.3296820  43.6460960  22.5673950  15.2257730
  47.9940820  19.4817200  23.3974690  48.0113560  19.9325850  24.2416540
  47.7456400  18.5822840  23.6108130  43.0433950  24.0150940  14.7794300
  42.4750850  23.5669190  14.1530210  43.7522950  24.3743720  14.2459450
  51.4211570  16.8949380  29.2361070  51.7457340  16.1639040  29.7619050
  51.4568080  16.5763020  28.3342060  38.1203130  27.9162960  28.6561030
  37.7357920  27.2756630  29.2543990  38.4315320  28.6199080  29.2255760
  44.2700270  24.7639500  24.1369650  44.6370400  24.2898070  24.8830990
  44.0805330  25.6381070  24.4777990  37.1340760  19.5083190  20.2663120
  36.8487680  19.1438860  21.1041740  37.0719620  18.7763650  19.6526260
  42.0599640  23.8048140  26.4553860  41.7556710  24.6840120  26.6804220
  43.0146100  23.8647930  26.4911300  40.5881430  28.0109130  17.0520710
  39.8143690  27.4706750  16.8919430  41.3176060  27.4915740  16.7138470
  51.3469410  27.0074490  22.8447100  52.0668530  27.5029780  22.4543210
  51.1451230  26.3292380  22.2000970  46.8079350  18.4012450  16.9876490
  45.9943960  17.9025620  16.9121800  46.6141300  19.2410700  16.5712840
  46.7288210  27.0783550  28.7316100  46.6625520  26.1579220  28.4773690
  46.0993350  27.1758990  29.4460740  49.5227740  22.7732100  15.2838650
  50.4107360  23.0849330  15.1089990  49.4932830  21.9004350  14.8919230
  40.6318830  27.6789510  20.6899520  41.1497500  26.8757770  20.6356410
  40.1802850  27.6168650  21.5316350  45.5188330  28.9455790  15.9626820
  45.8604030  29.6898020  15.4670140  44.6901040  29.2586910  16.3251650
  38.1163370  24.6450880  27.6025220  37.7578310  25.3104730  28.1898560
  37.8217930  23.8134430  27.9737840  41.3176490  25.1035120  30.4864770
  41.0176630  25.2492300  29.5892590  42.0887730  24.5440410  30.3938160
  46.6604940  29.9004120  28.4819900  46.6749480  28.9685080  28.2638810
  45.9530040  29.9863880  29.1209670  51.7942010  24.0843940  14.7518510
  51.7105730  24.5158160  13.9014950  52.5136200  24.5442290  15.1845330
  52.8716150  26.5411460  27.8288480  52.1464340  27.1340240  27.6317870
  53.3991610  26.5335000  27.0301850  52.8229260  30.9386200  17.4800640
  52.1805420  30.2841820  17.7544360  52.4359920  31.3441290  16.7041310
  48.4015740  28.2671630  21.3272330  48.7539560  27.6699760  20.6673700
  47.5178070  27.9415860  21.4980580  44.4879020  29.0269320  18.7342740
  45.1750150  29.5738530  19.1150330  43.7011440  29.5710050  18.7692350
  36.6271420  24.6442140  14.2259820  37.4966270  24.9266940  14.5095740
  36.1361740  25.4578010  14.1108630  43.7906230  26.0315350  18.3468100
  44.2469010  26.8420600  18.5728290  43.4394440  25.7138490  19.1786590
  46.0938840  31.5421690  25.5760400  46.7381060  31.7481070  26.2533820
  46.4568280  30.7810090  25.1231250  39.6918010  16.3753000  18.8190620
  39.5632640  16.3670900  19.7675540  38.8680030  16.7136090  18.4681630
  47.3670920  29.5454040  24.2937850  48.0093150  28.8447200  24.4070020
  47.8920270  30.3252480  24.1134740  51.2126640  29.8302660  14.0176990
  50.9864220  29.1133100  14.6101630  50.8222840  29.5815100  13.1798740
  49.1408540  30.3448940  27.4973910  49.4764780  30.9315630  28.1751830
  48.2208880  30.2141650  27.7271700  36.9942670  33.8569520  14.7921450
  37.3540310  34.4558860  14.1378720  36.8535010  34.4029410  15.5656480
  36.6911940  18.1344120  28.2797320  35.9770460  18.3341040  28.8849930
  37.1106980  17.3583690  28.6512120  50.7942890  27.7474600  15.6791150
  50.5064590  28.2087290  16.4669030  51.5895060  27.2872370  15.9475370
  44.9697120  30.3940270  30.6661970  44.6493990  29.6749510  31.2107660
  44.2955480  31.0695340  30.7398030  43.0111290  31.2400720  15.6095120
  43.0021390  31.9730410  14.9939630  42.0909650  30.9932300  15.7022080
  38.6117930  26.4615610  16.3541880  38.0045880  27.2014510  16.3637180
  39.0867280  26.5514970  15.5280080  48.1850720  20.6266430  26.0298770
  48.5531540  19.8061640  26.3578340  47.3248920  20.6868320  26.4454420
  51.5512750  19.5823370  16.8386330  50.9225910  19.6869040  16.1244560
  51.0564670  19.8020150  17.6280210  45.9970890  31.3028960  14.2720310
  46.0982870  31.0992950  13.3422290  45.0972630  31.0487240  14.4768090
  43.5196780  21.8609320  18.2544210  42.8112930  22.3295660  18.6957820
  43.8041260  21.2031330  18.8889400  45.1452710  23.2806020  26.2536740
  45.6437960  23.7551840  26.9188590  45.2875660  22.3569540  26.4606770
  47.5512210  18.5859980  19.6940000  47.4279990  18.6046110  18.7449510
  48.4996770  18.6338920  19.8138400  44.6389000  33.8215280  18.9667980
  44.8930500  33.7836670  18.0447350  43.6901480  33.6948610  18.9596230
  41.7231800  20.1694400  15.6294920  42.5722330  20.6064550  15.5635110
  41.3563070  20.4814660  16.4566980  52.3519570  19.4973980  27.0965130
  51.8493170  20.2379380  27.4358940  53.1676230  19.8857980  26.7801920
  50.6441580  24.7407160  20.5426490  49.7031720  24.7557390  20.7174180
  50.9585650  23.9543120  20.9886790  40.6223220  26.4226760  14.1030450
  41.3886490  26.3108120  14.6655880  40.6997910  25.7264730  13.4507220
  39.3169980  23.8551830  14.7863340  39.3973570  22.9079340  14.8980740
  40.2089730  24.1858710  14.8924000  52.6467160  31.9116010  22.2180750
  52.7714580  32.7347180  22.6904560  53.5132720  31.7006740  21.8704900
  40.1184690  34.0047220  21.8897880  40.8547170  33.4562680  22.1606450
  40.5025610  34.8703230  21.7503870  37.0030170  30.0720790  17.7639390
  36.0769950  30.3141930  17.7544800  37.4686600  30.8995050  17.6424140
  43.2287000  33.1777530  13.7123450  44.0215610  33.4666360  13.2605240
  42.7091350  32.7469700  13.0335930  47.9607600  29.2973160  31.0258870
  47.3545760  29.3204760  30.2854620  47.6561710  28.5656200  31.5626120
  49.3907970  33.0253450  29.6368280  50.3429720  32.9411470  29.5868520
  49.2436190  33.6895160  30.3102070  52.2817170  32.4047660  15.1360190
  51.9958680  31.9912800  14.3214370  52.0836720  33.3335370  15.0160710
  36.8440780  25.6766750  30.0219510  37.3479800  25.0974030  30.5935740
  36.1048200  25.9606980  30.5595880  43.7464400  28.3980940  13.5765800
  43.6415040  27.7833290  14.3027180  43.5788620  27.8746830  12.7928810
  43.8978720  27.0837740  29.5555030  43.1324390  27.6522740  29.4709700
  44.0794680  26.7913950  28.6623260  46.9867130  27.4600970  14.1807790
  46.4377230  27.9070270  14.8250530  47.6086390  26.9550220  14.7045460
  51.0402070  28.8143070  30.1130050  51.7811540  29.1518830  29.6097510
  50.2774750  28.9835130  29.5599820  38.8763860  23.8196340  30.9169580
  38.9169200  23.5210210  31.8254810  39.7309360  24.2203950  30.7577100
  42.6542250  26.4191890  16.0773090  43.0758670  26.2531760  16.9204480
  42.7793090  25.6092120  15.5828230  40.8169670  22.3988440  28.8844070
  40.2866130  21.9079390  28.2567410  41.4857740  22.8272640  28.3502000
  45.1669890  25.4429500  13.3250190  45.6875550  24.7278520  12.9591340
  45.8138290  26.0815370  13.6250700  49.7147730  26.8657900  28.6485260
  50.1288750  27.0202980  29.4975680  48.7798730  26.9913120  28.8111040
  50.1869900  24.2054060  30.6524410  50.7690670  23.4506380  30.5644890
  50.3631670  24.7361500  29.8755890  41.3041970  19.3650810  28.9641360
  41.2098840  18.7471560  28.2392230  40.7239360  20.0917100  28.7371270
  44.0703410  17.9224050  25.9968750  43.6220710  17.9448310  25.1514300
  43.4368610  17.5243070  26.5939050  44.4762960  26.8178380  26.6181190
  44.8951070  27.6611110  26.4457430  43.5571590  26.9550420  26.3887970
  46.8126860  24.5494560  28.0019030  46.9323070  23.9535700  28.7413870
  47.6720860  24.5864250  27.5820330  49.1514760  25.1031750  26.5781540
  48.6249980  25.6274370  25.9746680  49.4946100  25.7359140  27.2091270
  41.5501150  22.4925120  13.0231250  41.3490210  21.6292480  13.3844590
  41.3793200  22.4058480  12.0852850  42.3270380  33.1231390  27.7338920
  41.7891470  33.8477450  27.4147620  42.5804340  32.6461730  26.9436260
  43.5795630  21.0915910  29.2594850  44.1695320  20.7831760  29.9472670
  42.7615870  20.6195660  29.4154750  48.3989060  20.7081720  29.4927870
  47.7104580  20.0463260  29.4277860  49.1195080  20.2619990  29.9376330
  49.0289460  17.3033350  15.5518130  49.3091750  16.4601250  15.9077550
  48.2555190  17.5356460  16.0656880  40.3483950  19.5925740  13.0109130
  40.6509850  19.5993170  12.1028280  41.0878540  19.2423600  13.5076790
  45.1832590  34.3582600  27.9925570  45.1091290  35.2617740  28.2997940
  44.2811430  34.0394500  27.9647640  43.5668880  18.5360360  13.9965330
  43.2190880  17.8584350  13.4167780  43.7681650  18.0749870  14.8108720
  45.7317920  33.5241110  15.6151930  46.6268710  33.8626080  15.6370690
  45.7635550  32.8020520  14.9876210  39.3714080  28.8968160  13.8438930
  39.8088950  29.4397830  14.4996510  39.8561810  28.0715110  13.8535270
  36.5859880  31.6857190  21.2959190  36.9162890  30.8178250  21.0637830
  37.0150880  31.8915710  22.1264150  41.1821800  30.0166200  18.9561160
  40.8817340  29.8931170  19.8565070  41.0759290  29.1574790  18.5476890
  37.0750090  32.5527780  24.0340820  36.6381080  32.7328580  24.8664970
  37.6427770  33.3102400  23.8922540  52.7112270  32.0544780  28.3218130
  52.1114260  32.1137340  27.5782050  52.8406170  31.1149760  28.4514980
  53.9513720  29.7962600  13.6587840  53.1206680  29.8639250  14.1295070
  54.1285550  30.6866720  13.3554700  53.4070180  26.5410080  16.1622040
  54.1689090  27.1106730  16.2681730  53.4224550  25.9737280  16.9330350
  36.9074520  25.0648010  20.3929700  36.2523360  24.7959650  19.7489400
  37.7452470  24.9552490  19.9431680  54.4130150  27.3960180  21.0063970
  54.7838980  26.6127500  20.5999940  55.0532080  28.0849280  20.8281270
  51.3963910  28.7796760  26.4194290  50.5823750  29.2093920  26.6820080
  51.8038110  29.3915170  25.8063340  53.4589350  26.8344450  13.3194560
  53.7338190  27.7423330  13.1913780  53.2700090  26.7706980  14.2556550
  49.8564960  19.8589300  14.6148190  50.2749840  19.6720280  13.7744850
  49.5501020  19.0068350  14.9251120  53.3554690  24.7713440  18.3123990
  52.9798290  24.0041370  17.8805280  52.6257810  25.1536140  18.7998920
  37.9450450  25.4500580  24.9333040  38.3123490  25.3627980  25.8129060
  37.3761270  24.6867130  24.8339900  52.7454310  23.9184960  27.9463510
  52.5140400  23.6897710  27.0461460  53.0058860  24.8384510  27.9008400
  37.4966450  22.3609670  28.8391460  36.6022500  22.3276430  29.1785170
  38.0364000  22.5596460  29.6042710  51.1842380  19.1441390  30.7243210
  52.0612560  19.1524790  31.1077210  51.1963220  18.4072230  30.1135560
  36.1212600  22.2746940  16.3355030  35.2176680  22.5377140  16.1606690
  36.6053220  22.5458110  15.5554990  52.6305650  22.9970930  21.6131230
  53.1543130  22.5033580  20.9821400  53.2165070  23.1321290  22.3578800
  52.8095370  23.0810800  25.1350780  51.8598080  23.0474340  25.2495770
  52.9908380  23.9910910  24.9000550  38.6639810  21.3312480  14.2449410
  39.3731510  20.9095700  13.7596690  37.9479750  21.3987710  13.6132760
  38.3113970  17.3851810  13.2852060  39.0342100  17.9260750  13.6033280
  38.5838490  17.1115230  12.4093600  52.1205620  22.2544280  17.5523640
  52.6164740  22.0215150  18.3372520  51.9221690  21.4156120  17.1361280
  38.0006160  16.6358000  23.1874680  38.6482350  16.0855380  22.7469840
  38.4208000  16.8901150  24.0090490  53.5492780  20.8905230  20.0861320
  53.4392060  20.7361270  21.0243590  54.3100370  20.3626170  19.8436730
  51.8958500  16.8299360  26.5444320  52.5330720  17.4433500  26.9103510
  52.0433390  16.8660020  25.5993550  54.4383050  18.7213150  13.3267460
  55.3632360  18.5894330  13.1185750  54.4158840  18.8005970  14.2803910
  54.5121540  19.4923810  15.9524170  53.7173040  19.4268930  16.4817080
  54.7164820  20.4274450  15.9409520  51.4539960  33.5315360  19.9462560
  52.0499030  33.2099930  19.2696980  51.7118110  33.0587180  20.7375830
  37.7538160  16.7913670  25.9300000  37.4052980  17.2477490  26.6958180
  37.4225860  15.8970800  26.0122430  43.0608560  31.5192860  25.6962910
  42.8199920  31.7867420  24.8093430  44.0011200  31.6898590  25.7513770
  45.2662980  17.9825550  29.4519420  45.2051870  18.5747380  30.2014830
  46.2063360  17.8751510  29.3069680  47.9037540  17.6395610  29.0911710
  48.5177950  17.9574900  28.4292790  48.4487100  17.1544200  29.7107570
  54.3212720  33.5387240  26.4973550  53.8271000  33.9356110  25.7800680
  53.7126010  32.9136450  26.8910830  38.4258800  16.3189870  29.2050770
  38.9741790  16.1377920  28.4416880  38.4914110  15.5283980  29.7407080
  39.1990560  32.9095520  27.2150970  38.6050880  32.7780220  27.9541010
  39.1914400  32.0733660  26.7493070  48.6445580  16.2027750  25.4181000
  47.7705420  16.5362860  25.2153930  48.5356330  15.7300930  26.2432870
  49.5517560  18.4098620  26.8022720  49.2230920  17.5950380  26.4224450
  50.4999860  18.3668430  26.6788410  52.0052170  34.1810660  23.7760290
  51.5455140  34.9326470  23.4018310  51.3764630  33.4617130  23.7175090
  38.8302790  30.2753900  26.1659010  38.1036850  29.6559190  26.0984960
  38.8911940  30.6694510  25.2957090  42.4347890  32.4898900  22.9508420
  42.9512910  31.8786260  22.4256680  43.0845270  32.9927680  23.4419430
  45.1743390  33.3807390  23.7777400  45.4621200  33.1261690  22.9010410
  45.6866610  32.8284750  24.3682970  46.3920400  17.1197590  24.3573910
  45.6092190  17.5943090  24.6370670  46.0983330  16.2152420  24.2487090
  50.9441470  17.8220690  22.4023000  51.3849560  17.7665790  21.5544600
  50.6749060  18.7378700  22.4733180  52.8080040  17.4535930  20.4131820
  52.7468440  16.5097150  20.2662840  53.5872070  17.5616020  20.9585280
  37.1132790  33.5928290  19.3755770  36.9454830  32.9598970  20.0737660
  36.2467300  33.7987690  19.0249960  37.7360810  17.4245070  16.8787630
  38.4940170  17.5373950  16.3051660  37.2737980  18.2614270  16.8331060
  44.2774620  19.5384340  19.8689940  43.4649130  19.1641230  19.5285820
  44.7816260  18.7829420  20.1711130  48.7799600  16.2026790  21.1073010
  49.3828970  16.7747000  21.5821530  48.0392590  16.7666230  20.8846910
  51.9234200  16.6048350  16.3813290  52.1184830  17.5031800  16.6480720
  51.1364070  16.3735430  16.8746240  38.7195490  32.2861520  16.8205910
  38.1943110  32.6669550  16.1167870  38.6440070  32.9112290  17.5415620
  40.1085960  17.9509120  15.4189600  40.6378720  17.1638920  15.2897550
  40.7414280  18.6300310  15.6525130  42.3023800  17.6884260  18.4734990
  41.6726540  16.9871570  18.6405120  41.7628940  18.4488390  18.2568150
  45.2415750  34.3023490  31.1445600  46.1683060  34.0667760  31.1881560
  45.2266180  35.1295490  30.6631630  53.4760810  33.8449060  18.1419850
  53.6513000  33.1586800  17.4980770  52.7782380  34.3696110  17.7496520
  42.4279360  16.9668240  30.9087480  42.1463630  17.4701840  30.1448300
  42.8099060  16.1689990  30.5429610  41.3188460  34.2343900  15.6955160
  42.0507280  33.9503180  15.1479050  41.5782130  33.9957180  16.5854540
  40.4803250  30.3508630  15.7001490  39.8512130  30.8193730  16.2487320
  40.5951080  29.5057850  16.1347680  49.0294820  16.3821820  31.4867950
  48.9160270  16.7016430  32.3819470  49.8464560  16.7834330  31.1905230
  51.8093310  33.5293350  30.9686640  52.6018630  33.0342580  30.7612600
  52.1026460  34.2083490  31.5762250  46.0671010  26.1793310   3.7311960
  45.2913110  25.6993750   4.0210530  46.7183940  25.4998960   3.5568120
  40.0836840  26.4913120   4.6087720  39.2521720  26.2361830   5.0084230
  40.6917820  26.5623890   5.3445640  50.0878440  30.5853500   2.5111090
  49.6259970  29.8140740   2.8398260  50.9003990  30.6119570   3.0163540
  40.0638100  30.5253210   4.8045740  40.3666140  29.6350950   4.6255960
  40.8081690  31.0823430   4.5767990  36.4561800  24.0520660   4.2769810
  37.0277910  23.2842860   4.2773450  36.4563340  24.3509420   3.3676420
  45.5080000  28.8550500   3.7382120  45.4388280  27.9140440   3.5771250
  46.2699860  28.9451910   4.3104690  37.6986670  19.4605020   6.0638740
  37.5189510  18.5630770   6.3441500  37.2966750  20.0076890   6.7385690
  46.5385170  21.6620880   3.9651050  46.9149990  20.7892760   3.8524720
  46.4404680  21.9979580   3.0741490  38.3173340  21.9565520   4.6721080
  38.9983450  22.2203890   5.2908480  38.0021390  21.1166390   5.0059090
  42.5097910  23.0032880   3.7593670  43.0176130  23.5013850   4.3998690
  43.0411150  22.2268080   3.5833030  54.6108840  21.1738070   7.4623020
  53.9061010  21.5619780   6.9438130  54.8766760  21.8688360   8.0643950
  40.7934010  17.6431440   8.0257090  40.7952450  18.1603830   7.2202990
  39.9638320  17.1661620   8.0027020  42.0436860  27.2826620   6.2030590
  41.7106240  27.9095540   6.8451660  42.2203540  27.8088500   5.4232260
  50.5570770  21.0971700   3.6706930  49.8526340  21.3856590   4.2510040
  50.9182930  21.9071810   3.3106490  40.4749340  19.3541400   6.0327540
  40.8166150  20.1983450   5.7381410  39.5365150  19.5025140   6.1492880
  41.2555960  29.2507420   8.0179770  41.8729960  29.9258500   7.7364220
  40.3949080  29.6595400   7.9267270  52.1733550  30.7146830   5.9334410
  51.4897070  31.3845940   5.9251080  52.7127840  30.9127480   5.1679270
  53.6257690  20.5426490   4.0616140  52.6782600  20.5765470   4.1931570
  53.9507680  21.3565440   4.4465500  49.7092290  32.5590960   4.6479590
  49.7219450  32.1553250   3.7801850  49.1567510  33.3338250   4.5441020
  49.1077730  27.4620800   5.9762200  49.5246520  27.2480910   5.1415660
  49.8317550  27.7193590   6.5470820  53.0539830  25.8608020   6.0678440
  52.2258460  25.9301110   5.5928570  53.6490310  26.4462330   5.5994270
  50.0181840  22.6477340   7.0133310  49.6053020  23.4731050   7.2673300
  49.2857790  22.0622380   6.8209670  42.6196330  29.1204800   4.0391190
  42.3224620  28.5150270   3.3598970  43.5696150  29.1582110   3.9280550
  40.8643250  22.2080450   5.6551020  41.4157840  22.3175790   4.8804270
  41.3786760  22.5818050   6.3706250  50.7081940  32.6936670   7.7014290
  50.2312500  33.5008860   7.5086900  50.0243730  32.0415000   7.8540500
  41.7114760  28.8586490  10.6898990  40.8143290  29.0826460  10.9372390
  41.7367630  28.9821430   9.7410390  40.5385980  25.7299810   9.2656360
  40.3993750  26.6022610   9.6343760  39.6567340  25.3872620   9.1204300
  42.3366330  31.6721510  11.4741510  42.3081760  32.0764460  10.6069940
  42.1731300  30.7431870  11.3113110  54.2881150  32.4548610  12.7705680
  54.7640870  32.9331500  13.4494760  54.9088310  32.3866100  12.0451180
  36.4904630  27.4997360   5.1827270  36.5685050  27.6346130   4.2382990
  37.1046310  26.7913250   5.3755390  53.6914400  29.6461460   9.9305690
  53.8177460  29.4073340   9.0122870  53.7335780  28.8146000  10.4027770
  47.5531140  33.3489460   8.5000500  48.0675810  33.2597470   9.3022930
  46.7100220  33.6949160   8.7928410  53.5438410  21.6993920  10.8955430
  52.9282680  22.2073590  10.3670890  53.2234830  20.7992250  10.8381370
  36.5464150  28.5411530   7.7221730  36.7095190  28.0716890   6.9041100
  37.0116600  28.0335090   8.3870570  41.3182920  17.6717290   2.7582300
  40.8751070  18.4526830   2.4266820  41.8767910  17.9947180   3.4653240
  45.6052730  20.5385810   8.3617620  45.1432100  20.7468830   9.1737560
  45.2030840  19.7245160   8.0588290  50.6057240  21.7594760   9.4914280
  49.7550830  21.4600510   9.8123350  50.4459030  22.0036770   8.5798100
  47.7006950  23.2596510  11.5913070  48.0260360  22.4260260  11.2515300
  48.4887280  23.7825030  11.7391400  43.3558820  18.2164620   4.6171900
  43.6531150  19.1227450   4.5363920  43.9044380  17.7283400   4.0031470
  43.5496350  23.6936440  11.1523820  43.4539950  22.7531170  11.0024220
  44.3928330  23.9151510  10.7571890  38.6806890  20.1050110   9.3057600
  38.2870280  20.9525320   9.5130380  37.9925290  19.4676480   9.4966240
  45.2551940  20.1885080  12.3754340  44.5650260  19.9957280  13.0100430
  45.9984240  20.4719720  12.9078640  35.9823940  18.0278570   3.3387680
  35.6936990  18.5981430   4.0512660  36.7269700  17.5483020   3.7018910
  47.5314910  24.0283520   5.2108260  46.7996030  24.5370330   5.5598360
  47.1339250  23.2113500   4.9097040  43.9692300  20.7037720   3.6160750
  43.9728360  20.2627670   2.7665290  44.8643420  21.0255050   3.7232570
  39.8194680  20.5864210   2.5754960  39.4794730  21.0639440   3.3322010
  39.0572000  20.1329330   2.2156060  47.9940820  19.4817200   4.6231200
  48.0113560  19.9325850   5.4673050  47.7456400  18.5822840   4.8364640
  51.4211570  16.8949380  10.4617580  51.7457340  16.1639040  10.9875560
  51.4568080  16.5763020   9.5598570  38.1203130  27.9162960   9.8817540
  37.7357920  27.2756630  10.4800500  38.4315320  28.6199080  10.4512270
  44.2700270  24.7639500   5.3626160  44.6370400  24.2898070   6.1087500
  44.0805330  25.6381070   5.7034500  42.0599640  23.8048140   7.6810370
  41.7556710  24.6840120   7.9060730  43.0146100  23.8647930   7.7167810
  51.3469410  27.0074490   4.0703610  52.0668530  27.5029780   3.6799720
  51.1451230  26.3292380   3.4257480  46.7288210  27.0783550   9.9572610
  46.6625520  26.1579220   9.7030200  46.0993350  27.1758990  10.6717250
  40.6318830  27.6789510   1.9156030  41.1497500  26.8757770   1.8612920
  40.1802850  27.6168650   2.7572860  38.1163370  24.6450880   8.8281730
  37.7578310  25.3104730   9.4155070  37.8217930  23.8134430   9.1994350
  41.3176490  25.1035120  11.7121280  41.0176630  25.2492300  10.8149100
  42.0887730  24.5440410  11.6194670  46.6604940  29.9004120   9.7076410
  46.6749480  28.9685080   9.4895320  45.9530040  29.9863880  10.3466180
  52.8716150  26.5411460   9.0544990  52.1464340  27.1340240   8.8574380
  53.3991610  26.5335000   8.2558360  48.4015740  28.2671630   2.5528840
  48.7539560  27.6699760   1.8930210  47.5178070  27.9415860   2.7237090
  46.0938840  31.5421690   6.8016910  46.7381060  31.7481070   7.4790330
  46.4568280  30.7810090   6.3487760  47.3670920  29.5454040   5.5194360
  48.0093150  28.8447200   5.6326530  47.8920270  30.3252480   5.3391250
  49.1408540  30.3448940   8.7230420  49.4764780  30.9315630   9.4008340
  48.2208880  30.2141650   8.9528210  36.6911940  18.1344120   9.5053830
  35.9770460  18.3341040  10.1106440  37.1106980  17.3583690   9.8768630
  36.9784530  32.1224380  10.4920360  37.0875650  31.1819120  10.3515750
  36.3265090  32.3879130   9.8434090  44.9697120  30.3940270  11.8918480
  44.6493990  29.6749510  12.4364170  44.2955480  31.0695340  11.9654540
  48.1850720  20.6266430   7.2555280  48.5531540  19.8061640   7.5834850
  47.3248920  20.6868320   7.6710930  45.1452710  23.2806020   7.4793250
  45.6437960  23.7551840   8.1445100  45.2875660  22.3569540   7.6863280
  52.3519570  19.4973980   8.3221640  51.8493170  20.2379380   8.6615450
  53.1676230  19.8857980   8.0058430  50.6441580  24.7407160   1.7683000
  49.7031720  24.7557390   1.9430690  50.9585650  23.9543120   2.2143300
  52.6467160  31.9116010   3.4437260  52.7714580  32.7347180   3.9161070
  53.5132720  31.7006740   3.0961410  40.1184690  34.0047220   3.1154390
  40.8547170  33.4562680   3.3862960  40.5025610  34.8703230   2.9760380
  39.1242970  33.1893290  12.3039970  39.9255700  33.5105340  12.7175370
  38.6094790  32.8288870  13.0259880  47.9607600  29.2973160  12.2515380
  47.3545760  29.3204760  11.5111130  47.6561710  28.5656200  12.7882630
  49.3907970  33.0253450  10.8624790  50.3429720  32.9411470  10.8125030
  49.2436190  33.6895160  11.5358580  36.8440780  25.6766750  11.2476020
  37.3479800  25.0974030  11.8192250  36.1048200  25.9606980  11.7852390
  43.8978720  27.0837740  10.7811540  43.1324390  27.6522740  10.6966210
  44.0794680  26.7913950   9.8879770  51.0402070  28.8143070  11.3386560
  51.7811540  29.1518830  10.8354020  50.2774750  28.9835130  10.7856330
  38.8763860  23.8196340  12.1426090  38.9169200  23.5210210  13.0511320
  39.7309360  24.2203950  11.9833610  40.8169670  22.3988440  10.1100580
  40.2866130  21.9079390   9.4823920  41.4857740  22.8272640   9.5758510
  49.7147730  26.8657900   9.8741770  50.1288750  27.0202980  10.7232190
  48.7798730  26.9913120  10.0367550  50.1869900  24.2054060  11.8780920
  50.7690670  23.4506380  11.7901400  50.3631670  24.7361500  11.1012400
  41.3041970  19.3650810  10.1897870  41.2098840  18.7471560   9.4648740
  40.7239360  20.0917100   9.9627780  44.0703410  17.9224050   7.2225260
  43.6220710  17.9448310   6.3770810  43.4368610  17.5243070   7.8195560
  44.4762960  26.8178380   7.8437700  44.8951070  27.6611110   7.6713940
  43.5571590  26.9550420   7.6144480  46.8126860  24.5494560   9.2275540
  46.9323070  23.9535700   9.9670380  47.6720860  24.5864250   8.8076840
  49.1514760  25.1031750   7.8038050  48.6249980  25.6274370   7.2003190
  49.4946100  25.7359140   8.4347780  42.3270380  33.1231390   8.9595430
  41.7891470  33.8477450   8.6404130  42.5804340  32.6461730   8.1692770
  43.5795630  21.0915910  10.4851360  44.1695320  20.7831760  11.1729180
  42.7615870  20.6195660  10.6411260  48.3989060  20.7081720  10.7184380
  47.7104580  20.0463260  10.6534370  49.1195080  20.2619990  11.1632840
  45.1832590  34.3582600   9.2182080  45.1091290  35.2617740   9.5254450
  44.2811430  34.0394500   9.1904150  36.5859880  31.6857190   2.5215700
  36.9162890  30.8178250   2.2894340  37.0150880  31.8915710   3.3520660
  37.0750090  32.5527780   5.2597330  36.6381080  32.7328580   6.0921480
  37.6427770  33.3102400   5.1179050  52.7112270  32.0544780   9.5474640
  52.1114260  32.1137340   8.8038560  52.8406170  31.1149760   9.6771490
  54.4130150  27.3960180   2.2320480  54.7838980  26.6127500   1.8256450
  55.0532080  28.0849280   2.0537780  51.3963910  28.7796760   7.6450800
  50.5823750  29.2093920   7.9076590  51.8038110  29.3915170   7.0319850
  37.9450450  25.4500580   6.1589550  38.3123490  25.3627980   7.0385570
  37.3761270  24.6867130   6.0596410  52.7454310  23.9184960   9.1720020
  52.5140400  23.6897710   8.2717970  53.0058860  24.8384510   9.1264910
  37.4966450  22.3609670  10.0647970  36.6022500  22.3276430  10.4041680
  38.0364000  22.5596460  10.8299220  51.1842380  19.1441390  11.9499720
  52.0612560  19.1524790  12.3333720  51.1963220  18.4072230  11.3392070
  52.6305650  22.9970930   2.8387740  53.1543130  22.5033580   2.2077910
  53.2165070  23.1321290   3.5835310  52.8095370  23.0810800   6.3607290
  51.8598080  23.0474340   6.4752280  52.9908380  23.9910910   6.1257060
  38.0006160  16.6358000   4.4131190  38.6482350  16.0855380   3.9726350
  38.4208000  16.8901150   5.2347000  51.8958500  16.8299360   7.7700830
  52.5330720  17.4433500   8.1360020  52.0433390  16.8660020   6.8250060
  37.7538160  16.7913670   7.1556510  37.4052980  17.2477490   7.9214690
  37.4225860  15.8970800   7.2378940  39.3602530  29.9633270  11.3209700
  39.3172160  29.5926180  12.2024160  39.4913540  30.9010840  11.4611520
  43.0608560  31.5192860   6.9219420  42.8199920  31.7867420   6.0349940
  44.0011200  31.6898590   6.9770280  45.2662980  17.9825550  10.6775930
  45.2051870  18.5747380  11.4271340  46.2063360  17.8751510  10.5326190
  47.9037540  17.6395610  10.3168220  48.5177950  17.9574900   9.6549300
  48.4487100  17.1544200  10.9364080  54.3212720  33.5387240   7.7230060
  53.8271000  33.9356110   7.0057190  53.7126010  32.9136450   8.1167340
  38.4258800  16.3189870  10.4307280  38.9741790  16.1377920   9.6673390
  38.4914110  15.5283980  10.9663590  39.1990560  32.9095520   8.4407480
  38.6050880  32.7780220   9.1797520  39.1914400  32.0733660   7.9749580
  48.6445580  16.2027750   6.6437510  47.7705420  16.5362860   6.4410440
  48.5356330  15.7300930   7.4689380  49.5517560  18.4098620   8.0279230
  49.2230920  17.5950380   7.6480960  50.4999860  18.3668430   7.9044920
  52.0052170  34.1810660   5.0016800  51.5455140  34.9326470   4.6274820
  51.3764630  33.4617130   4.9431600  38.8302790  30.2753900   7.3915520
  38.1036850  29.6559190   7.3241470  38.8911940  30.6694510   6.5213600
  42.4347890  32.4898900   4.1764930  42.9512910  31.8786260   3.6513190
  43.0845270  32.9927680   4.6675940  45.1743390  33.3807390   5.0033910
  45.4621200  33.1261690   4.1266920  45.6866610  32.8284750   5.5939480
  46.3920400  17.1197590   5.5830420  45.6092190  17.5943090   5.8627180
  46.0983330  16.2152420   5.4743600  50.9441470  17.8220690   3.6279510
  51.3849560  17.7665790   2.7801110  50.6749060  18.7378700   3.6989690
  48.7799600  16.2026790   2.3329520  49.3828970  16.7747000   2.8078040
  48.0392590  16.7666230   2.1103420  45.2415750  34.3023490  12.3702110
  46.1683060  34.0667760  12.4138070  45.2266180  35.1295490  11.8888140
  42.4279360  16.9668240  12.1343990  42.1463630  17.4701840  11.3704810
  42.8099060  16.1689990  11.7686120  49.0294820  16.3821820  12.7124460
  48.9160270  16.7016430  13.6075980  49.8464560  16.7834330  12.4161740
  51.8093310  33.5293350  12.1943150  52.6018630  33.0342580  11.9869110
  52.1026460  34.2083490  12.8018760  47.9352970   5.6270800  58.1733160
  47.8547020   4.7125410  57.9024870  47.5217390   6.1237870  57.4672870
  46.0671010   7.4049820  60.0542430  45.2913110   6.9250260  60.3441000
  46.7183940   6.7255470  59.8798590  50.0878440  11.8110010  58.8341560
  49.6259970  11.0397250  59.1628730  50.9003990  11.8376080  59.3394010
  40.0638100  11.7509720  61.1276210  40.3666140  10.8607460  60.9486430
  40.8081690  12.3079940  60.8998460  38.4928790   2.6771520  54.7160580
  37.6045490   3.0187490  54.6140460  38.7769980   2.4771840  53.8241410
  36.4561800   5.2777170  60.6000280  37.0277910   4.5099370  60.6003920
  36.4563340   5.5765930  59.6906890  46.3141750  14.0968020  58.4545550
  45.6953190  14.5525520  57.8839990  47.1693530  14.2519480  58.0535250
  45.5080000  10.0807010  60.0612590  45.4388280   9.1396950  59.9001720
  46.2699860  10.1708420  60.6335160  46.5385170   2.8877390  60.2881520
  46.9149990   2.0149270  60.1755190  46.4404680   3.2236090  59.3971960
  42.5097910   4.2289390  60.0824140  43.0176130   4.7270360  60.7229160
  43.0411150   3.4524590  59.9063500  47.1805100   8.9807260  55.8477460
  46.5622370   9.4456710  55.2840180  47.6928350   9.6734740  56.2646970
  50.5570770   2.3228210  59.9937400  49.8526340   2.6113100  60.5740510
  50.9182930   3.1328320  59.6336960  36.5488300   9.6663790  53.2217090
  36.1716280  10.1550890  52.4901990  36.8061370  10.3389070  53.8523620
  53.6257690   1.7683000  60.3846610  52.6782600   1.8021980  60.5162040
  53.9507680   2.5821950  60.7695970  49.7092290  13.7847470  60.9710060
  49.7219450  13.3809760  60.1032320  49.1567510  14.5594760  60.8671490
  51.0037710  10.5063690  56.0600230  50.8934040   9.5638020  56.1849650
  51.0005960  10.8679330  56.9462990  46.5457990   6.1329010  55.4162720
  45.6187270   6.0666390  55.6451190  46.6982810   7.0709140  55.3017960
  46.5327070   2.4046010  52.4129880  45.5930740   2.5659970  52.4982340
  46.8510330   3.1231690  51.8665870  50.5755280   7.6949310  55.9197970
  49.9567700   7.3568860  55.2724270  50.5579730   7.0509070  56.6277160
  42.1514630   6.6593750  58.1982450  41.7471630   5.9471000  57.7028350
  42.2377750   6.3146990  59.0870490  42.6196330  10.3461310  60.3621660
  42.3224620   9.7406780  59.6829440  43.5696150  10.3838620  60.2511020
  48.7519980   6.9336120  52.9270720  49.1913260   6.0958550  52.7808540
  49.4648400   7.5665520  53.0134860  46.8615360  11.8732190  56.8951960
  47.3011270  12.6156520  56.4807350  46.8002250  12.1158760  57.8190920
  38.8519260   5.5538730  55.6989100  38.7316860   6.2800820  55.0870370
  38.5420150   4.7841640  55.2217010  37.7352260  10.4254060  57.9163920
  37.3280340  10.5668650  57.0617520  38.6265270  10.1414220  57.7135130
  49.5285540  14.8601310  54.2514970  49.3686680  14.5704250  55.1496800
  49.3632250  14.0841440  53.7160200  42.0073920  14.6399840  56.0286590
  41.8316400  13.7235380  55.8154390  41.1529660  14.9987130  56.2684390
  49.2311670  12.3688870  52.8112970  48.5376830  12.3666160  52.1515250
  49.9734530  11.9448190  52.3807140  48.7961600  13.9951580  56.8861460
  49.2518550  13.2140960  57.2000080  49.1354120  14.7058400  57.4302640
  41.1097140   4.0207370  56.8094020  40.8838060   3.8044540  57.7140640
  40.3289670   4.4535830  56.4639990  48.3394900   4.0270740  55.4084670
  47.7403790   4.7506540  55.2248290  48.8874510   3.9647520  54.6261120
  46.9459770   2.6634280  57.4387950  47.3389340   2.9806480  56.6256640
  47.3076620   1.7846160  57.5532470  36.1694170   3.1955200  50.8720870
  36.0868840   4.1385960  51.0135860  35.8177230   3.0530110  49.9933220
  44.0312450   2.9306310  52.9297980  44.1525270   2.8892790  53.8783800
  43.6460960   3.7930460  52.7744710  43.0433950   5.2407450  52.3281280
  42.4750850   4.7925700  51.7017190  43.7522950   5.6000230  51.7946430
  40.5881430   9.2365640  54.6007690  39.8143690   8.6963260  54.4406410
  41.3176060   8.7172250  54.2625450  51.3469410   8.2331000  60.3934080
  52.0668530   8.7286290  60.0030190  51.1451230   7.5548890  59.7487950
  49.5227740   3.9988610  52.8325630  50.4107360   4.3105840  52.6576970
  49.4932830   3.1260860  52.4406210  40.6318830   8.9046020  58.2386500
  41.1497500   8.1014280  58.1843390  40.1802850   8.8425160  59.0803330
  45.5188330  10.1712300  53.5113800  45.8604030  10.9154530  53.0157120
  44.6901040  10.4843420  53.8738630  51.7942010   5.3100450  52.3005490
  51.7105730   5.7414670  51.4501930  52.5136200   5.7698800  52.7332310
  52.8229260  12.1642710  55.0287620  52.1805420  11.5098330  55.3031340
  52.4359920  12.5697800  54.2528290  48.4015740   9.4928140  58.8759310
  48.7539560   8.8956270  58.2160680  47.5178070   9.1672370  59.0467560
  44.4879020  10.2525830  56.2829720  45.1750150  10.7995040  56.6637310
  43.7011440  10.7966560  56.3179330  36.6271420   5.8698650  51.7746800
  37.4966270   6.1523450  52.0582720  36.1361740   6.6834520  51.6595610
  43.7906230   7.2571860  55.8955080  44.2469010   8.0677110  56.1215270
  43.4394440   6.9395000  56.7273570  51.2126640  11.0559170  51.5663970
  50.9864220  10.3389610  52.1588610  50.8222840  10.8071610  50.7285720
  36.9942670  15.0826030  52.3408430  37.3540310  15.6815370  51.6865700
  36.8535010  15.6285920  53.1143460  50.7942890   8.9731110  53.2278130
  50.5064590   9.4343800  54.0156010  51.5895060   8.5128880  53.4962350
  43.0111290  12.4657230  53.1582100  43.0021390  13.1986920  52.5426610
  42.0909650  12.2188810  53.2509060  38.6117930   7.6872120  53.9028860
  38.0045880   8.4271020  53.9124160  39.0867280   7.7771480  53.0767060
  45.9970890  12.5285470  51.8207290  46.0982870  12.3249460  50.8909270
  45.0972630  12.2743750  52.0255070  43.5196780   3.0865830  55.8031190
  42.8112930   3.5552170  56.2444800  43.8041260   2.4287840  56.4376380
  44.6389000  15.0471790  56.5154960  44.8930500  15.0093180  55.5934330
  43.6901480  14.9205120  56.5083210  50.6441580   5.9663670  58.0913470
  49.7031720   5.9813900  58.2661160  50.9585650   5.1799630  58.5373770
  40.6223220   7.6483270  51.6517430  41.3886490   7.5364630  52.2142860
  40.6997910   6.9521240  50.9994200  39.3169980   5.0808340  52.3350320
  39.3973570   4.1335850  52.4467720  40.2089730   5.4115220  52.4410980
  52.6467160  13.1372520  59.7667730  52.7714580  13.9603690  60.2391540
  53.5132720  12.9263250  59.4191880  40.1184690  15.2303730  59.4384860
  40.8547170  14.6819190  59.7093430  40.5025610  16.0959740  59.2990850
  37.0030170  11.2977300  55.3126370  36.0769950  11.5398440  55.3031780
  37.4686600  12.1251560  55.1911120  43.2287000  14.4034040  51.2610430
  44.0215610  14.6922870  50.8092220  42.7091350  13.9726210  50.5822910
  52.2817170  13.6304170  52.6847170  51.9958680  13.2169310  51.8701350
  52.0836720  14.5591880  52.5647690  43.7464400   9.6237450  51.1252780
  43.6415040   9.0089800  51.8514160  43.5788620   9.1003340  50.3415790
  46.9867130   8.6857480  51.7294770  46.4377230   9.1326780  52.3737510
  47.6086390   8.1806730  52.2532440  42.6542250   7.6448400  53.6260070
  43.0758670   7.4788270  54.4691460  42.7793090   6.8348630  53.1315210
  45.1669890   6.6686010  50.8737170  45.6875550   5.9535030  50.5078320
  45.8138290   7.3071880  51.1737680  41.5501150   3.7181630  50.5718230
  41.3490210   2.8548990  50.9331570  41.3793200   3.6314990  49.6339830
  45.7317920  14.7497620  53.1638910  46.6268710  15.0882590  53.1857670
  45.7635550  14.0277030  52.5363190  39.3714080  10.1224670  51.3925910
  39.8088950  10.6654340  52.0483490  39.8561810   9.2971620  51.4022250
  36.5859880  12.9113700  58.8446170  36.9162890  12.0434760  58.6124810
  37.0150880  13.1172220  59.6751130  41.1821800  11.2422710  56.5048140
  40.8817340  11.1187680  57.4052050  41.0759290  10.3831300  56.0963870
  53.9513720  11.0219110  51.2074820  53.1206680  11.0895760  51.6782050
  54.1285550  11.9123230  50.9041680  53.4070180   7.7666590  53.7109020
  54.1689090   8.3363240  53.8168710  53.4224550   7.1993790  54.4817330
  36.9074520   6.2904520  57.9416680  36.2523360   6.0216160  57.2976380
  37.7452470   6.1809000  57.4918660  54.4130150   8.6216690  58.5550950
  54.7838980   7.8384010  58.1486920  55.0532080   9.3105790  58.3768250
  53.4589350   8.0600960  50.8681540  53.7338190   8.9679840  50.7400760
  53.2700090   7.9963490  51.8043530  53.3554690   5.9969950  55.8610970
  52.9798290   5.2297880  55.4292260  52.6257810   6.3792650  56.3485900
  36.1212600   3.5003450  53.8842010  35.2176680   3.7633650  53.7093670
  36.6053220   3.7714620  53.1041970  52.6305650   4.2227440  59.1618210
  53.1543130   3.7290090  58.5308380  53.2165070   4.3577800  59.9065780
  38.6639810   2.5568990  51.7936390  39.3731510   2.1352210  51.3083670
  37.9479750   2.6244220  51.1619740  52.1205620   3.4800790  55.1010620
  52.6164740   3.2471660  55.8859500  51.9221690   2.6412630  54.6848260
  51.4539960  14.7571870  57.4949540  52.0499030  14.4356440  56.8183960
  51.7118110  14.2843690  58.2862810  52.0052170  15.4067170  61.3247270
  51.5455140  16.1582980  60.9505290  51.3764630  14.6873640  61.2662070
  42.4347890  13.7155410  60.4995400  42.9512910  13.1042770  59.9743660
  43.0845270  14.2184190  60.9906410  37.1132790  14.8184800  56.9242750
  36.9454830  14.1855480  57.6224640  36.2467300  15.0244200  56.5736940
  38.7195490  13.5118030  54.3692890  38.1943110  13.8926060  53.6654850
  38.6440070  14.1368800  55.0902600  53.4760810  15.0705570  55.6906830
  53.6513000  14.3843310  55.0467750  52.7782380  15.5952620  55.2983500
  41.3188460  15.4600410  53.2442140  42.0507280  15.1759690  52.6966030
  41.5782130  15.2213690  54.1341520  40.4803250  11.5765140  53.2488470
  39.8512130  12.0450240  53.7974300  40.5951080  10.7314360  53.6834660
  47.9352970   5.6270800  39.3989670  47.8547020   4.7125410  39.1281380
  47.5217390   6.1237870  38.6929380  46.0671010   7.4049820  41.2798940
  45.2913110   6.9250260  41.5697510  46.7183940   6.7255470  41.1055100
  40.0836840   7.7169630  42.1574700  39.2521720   7.4618340  42.5571210
  40.6917820   7.7880400  42.8932620  50.0878440  11.8110010  40.0598070
  49.6259970  11.0397250  40.3885240  50.9003990  11.8376080  40.5650520
  40.0638100  11.7509720  42.3532720  40.3666140  10.8607460  42.1742940
  40.8081690  12.3079940  42.1254970  38.4928790   2.6771520  35.9417090
  37.6045490   3.0187490  35.8396970  38.7769980   2.4771840  35.0497920
  36.4561800   5.2777170  41.8256790  37.0277910   4.5099370  41.8260430
  36.4563340   5.5765930  40.9163400  46.3141750  14.0968020  39.6802060
  45.6953190  14.5525520  39.1096500  47.1693530  14.2519480  39.2791760
  45.5080000  10.0807010  41.2869100  45.4388280   9.1396950  41.1258230
  46.2699860  10.1708420  41.8591670  46.5385170   2.8877390  41.5138030
  46.9149990   2.0149270  41.4011700  46.4404680   3.2236090  40.6228470
  38.3173340   3.1822030  42.2208060  38.9983450   3.4460400  42.8395460
  38.0021390   2.3422900  42.5546070  42.5097910   4.2289390  41.3080650
  43.0176130   4.7270360  41.9485670  43.0411150   3.4524590  41.1320010
  54.6108840   2.3994580  45.0110000  53.9061010   2.7876290  44.4925110
  54.8766760   3.0944870  45.6130930  47.1805100   8.9807260  37.0733970
  46.5622370   9.4456710  36.5096690  47.6928350   9.6734740  37.4903480
  42.0436860   8.5083130  43.7517570  41.7106240   9.1352050  44.3938640
  42.2203540   9.0345010  42.9719240  50.5570770   2.3228210  41.2193910
  49.8526340   2.6113100  41.7997020  50.9182930   3.1328320  40.8593470
  41.2555960  10.4763930  45.5666750  41.8729960  11.1515010  45.2851200
  40.3949080  10.8851910  45.4754250  36.5488300   9.6663790  34.4473600
  36.1716280  10.1550890  33.7158500  36.8061370  10.3389070  35.0780130
  52.1733550  11.9403340  43.4821390  51.4897070  12.6102450  43.4738060
  52.7127840  12.1383990  42.7166250  53.6257690   1.7683000  41.6103120
  52.6782600   1.8021980  41.7418550  53.9507680   2.5821950  41.9952480
  49.7092290  13.7847470  42.1966570  49.7219450  13.3809760  41.3288830
  49.1567510  14.5594760  42.0928000  51.0037710  10.5063690  37.2856740
  50.8934040   9.5638020  37.4106160  51.0005960  10.8679330  38.1719500
  49.1077730   8.6877310  43.5249180  49.5246520   8.4737420  42.6902640
  49.8317550   8.9450100  44.0957800  46.5457990   6.1329010  36.6419230
  45.6187270   6.0666390  36.8707700  46.6982810   7.0709140  36.5274470
  46.5327070   2.4046010  33.6386390  45.5930740   2.5659970  33.7238850
  46.8510330   3.1231690  33.0922380  53.0539830   7.0864530  43.6165420
  52.2258460   7.1557620  43.1415550  53.6490310   7.6718840  43.1481250
  50.5755280   7.6949310  37.1454480  49.9567700   7.3568860  36.4980780
  50.5579730   7.0509070  37.8533670  50.0181840   3.8733850  44.5620290
  49.6053020   4.6987560  44.8160280  49.2857790   3.2878890  44.3696650
  42.1514630   6.6593750  39.4238960  41.7471630   5.9471000  38.9284860
  42.2377750   6.3146990  40.3127000  42.6196330  10.3461310  41.5878170
  42.3224620   9.7406780  40.9085950  43.5696150  10.3838620  41.4767530
  40.8643250   3.4336960  43.2038000  41.4157840   3.5432300  42.4291250
  41.3786760   3.8074560  43.9193230  50.7081940  13.9193180  45.2501270
  50.2312500  14.7265370  45.0573880  50.0243730  13.2671510  45.4027480
  41.7114760  10.0843000  48.2385970  40.8143290  10.3082970  48.4859370
  41.7367630  10.2077940  47.2897370  48.7519980   6.9336120  34.1527230
  49.1913260   6.0958550  34.0065050  49.4648400   7.5665520  34.2391370
  40.5385980   6.9556320  46.8143340  40.3993750   7.8279120  47.1830740
  39.6567340   6.6129130  46.6691280  46.8615360  11.8732190  38.1208470
  47.3011270  12.6156520  37.7063860  46.8002250  12.1158760  39.0447430
  42.3366330  12.8978020  49.0228490  42.3081760  13.3020970  48.1556920
  42.1731300  11.9688380  48.8600090  38.8519260   5.5538730  36.9245610
  38.7316860   6.2800820  36.3126880  38.5420150   4.7841640  36.4473520
  54.2881150  13.6805120  50.3192660  54.7640870  14.1588010  50.9981740
  54.9088310  13.6122610  49.5938160  36.4904630   8.7253870  42.7314250
  36.5685050   8.8602640  41.7869970  37.1046310   8.0169760  42.9242370
  37.7352260  10.4254060  39.1420430  37.3280340  10.5668650  38.2874030
  38.6265270  10.1414220  38.9391640  53.6914400  10.8717970  47.4792670
  53.8177460  10.6329850  46.5609850  53.7335780  10.0402510  47.9514750
  47.5531140  14.5745970  46.0487480  48.0675810  14.4853980  46.8509910
  46.7100220  14.9205670  46.3415390  49.5285540  14.8601310  35.4771480
  49.3686680  14.5704250  36.3753310  49.3632250  14.0841440  34.9416710
  42.0073920  14.6399840  37.2543100  41.8316400  13.7235380  37.0410900
  41.1529660  14.9987130  37.4940900  49.2311670  12.3688870  34.0369480
  48.5376830  12.3666160  33.3771760  49.9734530  11.9448190  33.6063650
  48.7961600  13.9951580  38.1117970  49.2518550  13.2140960  38.4256590
  49.1354120  14.7058400  38.6559150  53.5438410   2.9250430  48.4442410
  52.9282680   3.4330100  47.9157870  53.2234830   2.0248760  48.3868350
  36.5464150   9.7668040  45.2708710  36.7095190   9.2973400  44.4528080
  37.0116600   9.2591600  45.9357550  50.6057240   2.9851270  47.0401260
  49.7550830   2.6857020  47.3610330  50.4459030   3.2293280  46.1285080
  47.7006950   4.4853020  49.1400050  48.0260360   3.6516770  48.8002280
  48.4887280   5.0081540  49.2878380  41.1097140   4.0207370  38.0350530
  40.8838060   3.8044540  38.9397150  40.3289670   4.4535830  37.6896500
  48.3394900   4.0270740  36.6341180  47.7403790   4.7506540  36.4504800
  48.8874510   3.9647520  35.8517630  43.5496350   4.9192950  48.7010800
  43.4539950   3.9787680  48.5511200  44.3928330   5.1408020  48.3058870
  46.9459770   2.6634280  38.6644460  47.3389340   2.9806480  37.8513150
  47.3076620   1.7846160  38.7788980  36.1694170   3.1955200  32.0977380
  36.0868840   4.1385960  32.2392370  35.8177230   3.0530110  31.2189730
  47.5314910   5.2540030  42.7595240  46.7996030   5.7626840  43.1085340
  47.1339250   4.4370010  42.4584020  44.0312450   2.9306310  34.1554490
  44.1525270   2.8892790  35.1040310  43.6460960   3.7930460  34.0001220
  43.0433950   5.2407450  33.5537790  42.4750850   4.7925700  32.9273700
  43.7522950   5.6000230  33.0202940  38.1203130   9.1419470  47.4304520
  37.7357920   8.5013140  48.0287480  38.4315320   9.8455590  47.9999250
  44.2700270   5.9896010  42.9113140  44.6370400   5.5154580  43.6574480
  44.0805330   6.8637580  43.2521480  42.0599640   5.0304650  45.2297350
  41.7556710   5.9096630  45.4547710  43.0146100   5.0904440  45.2654790
  40.5881430   9.2365640  35.8264200  39.8143690   8.6963260  35.6662920
  41.3176060   8.7172250  35.4881960  51.3469410   8.2331000  41.6190590
  52.0668530   8.7286290  41.2286700  51.1451230   7.5548890  40.9744460
  46.7288210   8.3040060  47.5059590  46.6625520   7.3835730  47.2517180
  46.0993350   8.4015500  48.2204230  49.5227740   3.9988610  34.0582140
  50.4107360   4.3105840  33.8833480  49.4932830   3.1260860  33.6662720
  40.6318830   8.9046020  39.4643010  41.1497500   8.1014280  39.4099900
  40.1802850   8.8425160  40.3059840  45.5188330  10.1712300  34.7370310
  45.8604030  10.9154530  34.2413630  44.6901040  10.4843420  35.0995140
  38.1163370   5.8707390  46.3768710  37.7578310   6.5361240  46.9642050
  37.8217930   5.0390940  46.7481330  41.3176490   6.3291630  49.2608260
  41.0176630   6.4748810  48.3636080  42.0887730   5.7696920  49.1681650
  46.6604940  11.1260630  47.2563390  46.6749480  10.1941590  47.0382300
  45.9530040  11.2120390  47.8953160  51.7942010   5.3100450  33.5262000
  51.7105730   5.7414670  32.6758440  52.5136200   5.7698800  33.9588820
  52.8716150   7.7667970  46.6031970  52.1464340   8.3596750  46.4061360
  53.3991610   7.7591510  45.8045340  52.8229260  12.1642710  36.2544130
  52.1805420  11.5098330  36.5287850  52.4359920  12.5697800  35.4784800
  48.4015740   9.4928140  40.1015820  48.7539560   8.8956270  39.4417190
  47.5178070   9.1672370  40.2724070  44.4879020  10.2525830  37.5086230
  45.1750150  10.7995040  37.8893820  43.7011440  10.7966560  37.5435840
  36.6271420   5.8698650  33.0003310  37.4966270   6.1523450  33.2839230
  36.1361740   6.6834520  32.8852120  43.7906230   7.2571860  37.1211590
  44.2469010   8.0677110  37.3471780  43.4394440   6.9395000  37.9530080
  46.0938840  12.7678200  44.3503890  46.7381060  12.9737580  45.0277310
  46.4568280  12.0066600  43.8974740  47.3670920  10.7710550  43.0681340
  48.0093150  10.0703710  43.1813510  47.8920270  11.5508990  42.8878230
  51.2126640  11.0559170  32.7920480  50.9864220  10.3389610  33.3845120
  50.8222840  10.8071610  31.9542230  49.1408540  11.5705450  46.2717400
  49.4764780  12.1572140  46.9495320  48.2208880  11.4398160  46.5015190
  36.9942670  15.0826030  33.5664940  37.3540310  15.6815370  32.9122210
  36.8535010  15.6285920  34.3399970  50.7942890   8.9731110  34.4534640
  50.5064590   9.4343800  35.2412520  51.5895060   8.5128880  34.7218860
  36.9784530  13.3480890  48.0407340  37.0875650  12.4075630  47.9002730
  36.3265090  13.6135640  47.3921070  44.9697120  11.6196780  49.4405460
  44.6493990  10.9006020  49.9851150  44.2955480  12.2951850  49.5141520
  43.0111290  12.4657230  34.3838610  43.0021390  13.1986920  33.7683120
  42.0909650  12.2188810  34.4765570  38.6117930   7.6872120  35.1285370
  38.0045880   8.4271020  35.1380670  39.0867280   7.7771480  34.3023570
  45.9970890  12.5285470  33.0463800  46.0982870  12.3249460  32.1165780
  45.0972630  12.2743750  33.2511580  43.5196780   3.0865830  37.0287700
  42.8112930   3.5552170  37.4701310  43.8041260   2.4287840  37.6632890
  45.1452710   4.5062530  45.0280230  45.6437960   4.9808350  45.6932080
  45.2875660   3.5826050  45.2350260  44.6389000  15.0471790  37.7411470
  44.8930500  15.0093180  36.8190840  43.6901480  14.9205120  37.7339720
  50.6441580   5.9663670  39.3169980  49.7031720   5.9813900  39.4917670
  50.9585650   5.1799630  39.7630280  40.6223220   7.6483270  32.8773940
  41.3886490   7.5364630  33.4399370  40.6997910   6.9521240  32.2250710
  39.3169980   5.0808340  33.5606830  39.3973570   4.1335850  33.6724230
  40.2089730   5.4115220  33.6667490  52.6467160  13.1372520  40.9924240
  52.7714580  13.9603690  41.4648050  53.5132720  12.9263250  40.6448390
  40.1184690  15.2303730  40.6641370  40.8547170  14.6819190  40.9349940
  40.5025610  16.0959740  40.5247360  37.0030170  11.2977300  36.5382880
  36.0769950  11.5398440  36.5288290  37.4686600  12.1251560  36.4167630
  39.1242970  14.4149800  49.8526950  39.9255700  14.7361850  50.2662350
  38.6094790  14.0545380  50.5746860  43.2287000  14.4034040  32.4866940
  44.0215610  14.6922870  32.0348730  42.7091350  13.9726210  31.8079420
  47.9607600  10.5229670  49.8002360  47.3545760  10.5461270  49.0598110
  47.6561710   9.7912710  50.3369610  49.3907970  14.2509960  48.4111770
  50.3429720  14.1667980  48.3612010  49.2436190  14.9151670  49.0845560
  52.2817170  13.6304170  33.9103680  51.9958680  13.2169310  33.0957860
  52.0836720  14.5591880  33.7904200  36.8440780   6.9023260  48.7963000
  37.3479800   6.3230540  49.3679230  36.1048200   7.1863490  49.3339370
  43.7464400   9.6237450  32.3509290  43.6415040   9.0089800  33.0770670
  43.5788620   9.1003340  31.5672300  43.8978720   8.3094250  48.3298520
  43.1324390   8.8779250  48.2453190  44.0794680   8.0170460  47.4366750
  46.9867130   8.6857480  32.9551280  46.4377230   9.1326780  33.5994020
  47.6086390   8.1806730  33.4788950  51.0402070  10.0399580  48.8873540
  51.7811540  10.3775340  48.3841000  50.2774750  10.2091640  48.3343310
  38.8763860   5.0452850  49.6913070  38.9169200   4.7466720  50.5998300
  39.7309360   5.4460460  49.5320590  42.6542250   7.6448400  34.8516580
  43.0758670   7.4788270  35.6947970  42.7793090   6.8348630  34.3571720
  40.8169670   3.6244950  47.6587560  40.2866130   3.1335900  47.0310900
  41.4857740   4.0529150  47.1245490  45.1669890   6.6686010  32.0993680
  45.6875550   5.9535030  31.7334830  45.8138290   7.3071880  32.3994190
  49.7147730   8.0914410  47.4228750  50.1288750   8.2459490  48.2719170
  48.7798730   8.2169630  47.5854530  50.1869900   5.4310570  49.4267900
  50.7690670   4.6762890  49.3388380  50.3631670   5.9618010  48.6499380
  44.4762960   8.0434890  45.3924680  44.8951070   8.8867620  45.2200920
  43.5571590   8.1806930  45.1631460  46.8126860   5.7751070  46.7762520
  46.9323070   5.1792210  47.5157360  47.6720860   5.8120760  46.3563820
  49.1514760   6.3288260  45.3525030  48.6249980   6.8530880  44.7490170
  49.4946100   6.9615650  45.9834760  41.5501150   3.7181630  31.7974740
  41.3490210   2.8548990  32.1588080  41.3793200   3.6314990  30.8596340
  42.3270380  14.3487900  46.5082410  41.7891470  15.0733960  46.1891110
  42.5804340  13.8718240  45.7179750  43.5795630   2.3172420  48.0338340
  44.1695320   2.0088270  48.7216160  42.7615870   1.8452170  48.1898240
  45.1832590  15.5839110  46.7669060  45.1091290  16.4874250  47.0741430
  44.2811430  15.2651010  46.7391130  45.7317920  14.7497620  34.3895420
  46.6268710  15.0882590  34.4114180  45.7635550  14.0277030  33.7619700
  39.3714080  10.1224670  32.6182420  39.8088950  10.6654340  33.2740000
  39.8561810   9.2971620  32.6278760  36.5859880  12.9113700  40.0702680
  36.9162890  12.0434760  39.8381320  37.0150880  13.1172220  40.9007640
  41.1821800  11.2422710  37.7304650  40.8817340  11.1187680  38.6308560
  41.0759290  10.3831300  37.3220380  37.0750090  13.7784290  42.8084310
  36.6381080  13.9585090  43.6408460  37.6427770  14.5358910  42.6666030
  52.7112270  13.2801290  47.0961620  52.1114260  13.3393850  46.3525540
  52.8406170  12.3406270  47.2258470  53.9513720  11.0219110  32.4331330
  53.1206680  11.0895760  32.9038560  54.1285550  11.9123230  32.1298190
  53.4070180   7.7666590  34.9365530  54.1689090   8.3363240  35.0425220
  53.4224550   7.1993790  35.7073840  36.9074520   6.2904520  39.1673190
  36.2523360   6.0216160  38.5232890  37.7452470   6.1809000  38.7175170
  54.4130150   8.6216690  39.7807460  54.7838980   7.8384010  39.3743430
  55.0532080   9.3105790  39.6024760  51.3963910  10.0053270  45.1937780
  50.5823750  10.4350430  45.4563570  51.8038110  10.6171680  44.5806830
  53.4589350   8.0600960  32.0938050  53.7338190   8.9679840  31.9657270
  53.2700090   7.9963490  33.0300040  53.3554690   5.9969950  37.0867480
  52.9798290   5.2297880  36.6548770  52.6257810   6.3792650  37.5742410
  37.9450450   6.6757090  43.7076530  38.3123490   6.5884490  44.5872550
  37.3761270   5.9123640  43.6083390  52.7454310   5.1441470  46.7207000
  52.5140400   4.9154220  45.8204950  53.0058860   6.0641020  46.6751890
  37.4966450   3.5866180  47.6134950  36.6022500   3.5532940  47.9528660
  38.0364000   3.7852970  48.3786200  36.1212600   3.5003450  35.1098520
  35.2176680   3.7633650  34.9350180  36.6053220   3.7714620  34.3298480
  52.6305650   4.2227440  40.3874720  53.1543130   3.7290090  39.7564890
  53.2165070   4.3577800  41.1322290  52.8095370   4.3067310  43.9094270
  51.8598080   4.2730850  44.0239260  52.9908380   5.2167420  43.6744040
  38.6639810   2.5568990  33.0192900  39.3731510   2.1352210  32.5340180
  37.9479750   2.6244220  32.3876250  52.1205620   3.4800790  36.3267130
  52.6164740   3.2471660  37.1116010  51.9221690   2.6412630  35.9104770
  51.4539960  14.7571870  38.7206050  52.0499030  14.4356440  38.0440470
  51.7118110  14.2843690  39.5119320  39.3602530  11.1889780  48.8696680
  39.3172160  10.8182690  49.7511140  39.4913540  12.1267350  49.0098500
  43.0608560  12.7449370  44.4706400  42.8199920  13.0123930  43.5836920
  44.0011200  12.9155100  44.5257260  54.3212720  14.7643750  45.2717040
  53.8271000  15.1612620  44.5544170  53.7126010  14.1392960  45.6654320
  39.1990560  14.1352030  45.9894460  38.6050880  14.0036730  46.7284500
  39.1914400  13.2990170  45.5236560  52.0052170  15.4067170  42.5503780
  51.5455140  16.1582980  42.1761800  51.3764630  14.6873640  42.4918580
  38.8302790  11.5010410  44.9402500  38.1036850  10.8815700  44.8728450
  38.8911940  11.8951020  44.0700580  42.4347890  13.7155410  41.7251910
  42.9512910  13.1042770  41.2000170  43.0845270  14.2184190  42.2162920
  45.1743390  14.6063900  42.5520890  45.4621200  14.3518200  41.6753900
  45.6866610  14.0541260  43.1426460  37.1132790  14.8184800  38.1499260
  36.9454830  14.1855480  38.8481150  36.2467300  15.0244200  37.7993450
  38.7195490  13.5118030  35.5949400  38.1943110  13.8926060  34.8911360
  38.6440070  14.1368800  36.3159110  45.2415750  15.5280000  49.9189090
  46.1683060  15.2924270  49.9625050  45.2266180  16.3552000  49.4375120
  53.4760810  15.0705570  36.9163340  53.6513000  14.3843310  36.2724260
  52.7782380  15.5952620  36.5240010  41.3188460  15.4600410  34.4698650
  42.0507280  15.1759690  33.9222540  41.5782130  15.2213690  35.3598030
  40.4803250  11.5765140  34.4744980  39.8512130  12.0450240  35.0230810
  40.5951080  10.7314360  34.9091170  51.8093310  14.7549860  49.7430130
  52.6018630  14.2599090  49.5356090  52.1026460  15.4340000  50.3505740
  47.9352970   5.6270800  20.6246180  47.8547020   4.7125410  20.3537890
  47.5217390   6.1237870  19.9185890  46.0671010   7.4049820  22.5055450
  45.2913110   6.9250260  22.7954020  46.7183940   6.7255470  22.3311610
  40.0836840   7.7169630  23.3831210  39.2521720   7.4618340  23.7827720
  40.6917820   7.7880400  24.1189130  50.0878440  11.8110010  21.2854580
  49.6259970  11.0397250  21.6141750  50.9003990  11.8376080  21.7907030
  40.0638100  11.7509720  23.5789230  40.3666140  10.8607460  23.3999450
  40.8081690  12.3079940  23.3511480  38.4928790   2.6771520  17.1673600
  37.6045490   3.0187490  17.0653480  38.7769980   2.4771840  16.2754430
  36.4561800   5.2777170  23.0513300  37.0277910   4.5099370  23.0516940
  36.4563340   5.5765930  22.1419910  46.3141750  14.0968020  20.9058570
  45.6953190  14.5525520  20.3353010  47.1693530  14.2519480  20.5048270
  45.5080000  10.0807010  22.5125610  45.4388280   9.1396950  22.3514740
  46.2699860  10.1708420  23.0848180  46.5385170   2.8877390  22.7394540
  46.9149990   2.0149270  22.6268210  46.4404680   3.2236090  21.8484980
  38.3173340   3.1822030  23.4464570  38.9983450   3.4460400  24.0651970
  38.0021390   2.3422900  23.7802580  42.5097910   4.2289390  22.5337160
  43.0176130   4.7270360  23.1742180  43.0411150   3.4524590  22.3576520
  54.6108840   2.3994580  26.2366510  53.9061010   2.7876290  25.7181620
  54.8766760   3.0944870  26.8387440  47.1805100   8.9807260  18.2990480
  46.5622370   9.4456710  17.7353200  47.6928350   9.6734740  18.7159990
  42.0436860   8.5083130  24.9774080  41.7106240   9.1352050  25.6195150
  42.2203540   9.0345010  24.1975750  50.5570770   2.3228210  22.4450420
  49.8526340   2.6113100  23.0253530  50.9182930   3.1328320  22.0849980
  41.2555960  10.4763930  26.7923260  41.8729960  11.1515010  26.5107710
  40.3949080  10.8851910  26.7010760  36.5488300   9.6663790  15.6730110
  36.1716280  10.1550890  14.9415010  36.8061370  10.3389070  16.3036640
  52.1733550  11.9403340  24.7077900  51.4897070  12.6102450  24.6994570
  52.7127840  12.1383990  23.9422760  53.6257690   1.7683000  22.8359630
  52.6782600   1.8021980  22.9675060  53.9507680   2.5821950  23.2208990
  49.7092290  13.7847470  23.4223080  49.7219450  13.3809760  22.5545340
  49.1567510  14.5594760  23.3184510  51.0037710  10.5063690  18.5113250
  50.8934040   9.5638020  18.6362670  51.0005960  10.8679330  19.3976010
  49.1077730   8.6877310  24.7505690  49.5246520   8.4737420  23.9159150
  49.8317550   8.9450100  25.3214310  46.5457990   6.1329010  17.8675740
  45.6187270   6.0666390  18.0964210  46.6982810   7.0709140  17.7530980
  46.5327070   2.4046010  14.8642900  45.5930740   2.5659970  14.9495360
  46.8510330   3.1231690  14.3178890  53.0539830   7.0864530  24.8421930
  52.2258460   7.1557620  24.3672060  53.6490310   7.6718840  24.3737760
  50.5755280   7.6949310  18.3710990  49.9567700   7.3568860  17.7237290
  50.5579730   7.0509070  19.0790180  50.0181840   3.8733850  25.7876800
  49.6053020   4.6987560  26.0416790  49.2857790   3.2878890  25.5953160
  42.1514630   6.6593750  20.6495470  41.7471630   5.9471000  20.1541370
  42.2377750   6.3146990  21.5383510  42.6196330  10.3461310  22.8134680
  42.3224620   9.7406780  22.1342460  43.5696150  10.3838620  22.7024040
  40.8643250   3.4336960  24.4294510  41.4157840   3.5432300  23.6547760
  41.3786760   3.8074560  25.1449740  50.7081940  13.9193180  26.4757780
  50.2312500  14.7265370  26.2830390  50.0243730  13.2671510  26.6283990
  41.7114760  10.0843000  29.4642480  40.8143290  10.3082970  29.7115880
  41.7367630  10.2077940  28.5153880  48.7519980   6.9336120  15.3783740
  49.1913260   6.0958550  15.2321560  49.4648400   7.5665520  15.4647880
  40.5385980   6.9556320  28.0399850  40.3993750   7.8279120  28.4087250
  39.6567340   6.6129130  27.8947790  46.8615360  11.8732190  19.3464980
  47.3011270  12.6156520  18.9320370  46.8002250  12.1158760  20.2703940
  42.3366330  12.8978020  30.2485000  42.3081760  13.3020970  29.3813430
  42.1731300  11.9688380  30.0856600  38.8519260   5.5538730  18.1502120
  38.7316860   6.2800820  17.5383390  38.5420150   4.7841640  17.6730030
  54.2881150  13.6805120  31.5449170  54.7640870  14.1588010  32.2238250
  54.9088310  13.6122610  30.8194670  36.4904630   8.7253870  23.9570760
  36.5685050   8.8602640  23.0126480  37.1046310   8.0169760  24.1498880
  37.7352260  10.4254060  20.3676940  37.3280340  10.5668650  19.5130540
  38.6265270  10.1414220  20.1648150  53.6914400  10.8717970  28.7049180
  53.8177460  10.6329850  27.7866360  53.7335780  10.0402510  29.1771260
  47.5531140  14.5745970  27.2743990  48.0675810  14.4853980  28.0766420
  46.7100220  14.9205670  27.5671900  49.5285540  14.8601310  16.7027990
  49.3686680  14.5704250  17.6009820  49.3632250  14.0841440  16.1673220
  42.0073920  14.6399840  18.4799610  41.8316400  13.7235380  18.2667410
  41.1529660  14.9987130  18.7197410  49.2311670  12.3688870  15.2625990
  48.5376830  12.3666160  14.6028270  49.9734530  11.9448190  14.8320160
  48.7961600  13.9951580  19.3374480  49.2518550  13.2140960  19.6513100
  49.1354120  14.7058400  19.8815660  53.5438410   2.9250430  29.6698920
  52.9282680   3.4330100  29.1414380  53.2234830   2.0248760  29.6124860
  36.5464150   9.7668040  26.4965220  36.7095190   9.2973400  25.6784590
  37.0116600   9.2591600  27.1614060  50.6057240   2.9851270  28.2657770
  49.7550830   2.6857020  28.5866840  50.4459030   3.2293280  27.3541590
  47.7006950   4.4853020  30.3656560  48.0260360   3.6516770  30.0258790
  48.4887280   5.0081540  30.5134890  41.1097140   4.0207370  19.2607040
  40.8838060   3.8044540  20.1653660  40.3289670   4.4535830  18.9153010
  48.3394900   4.0270740  17.8597690  47.7403790   4.7506540  17.6761310
  48.8874510   3.9647520  17.0774140  43.5496350   4.9192950  29.9267310
  43.4539950   3.9787680  29.7767710  44.3928330   5.1408020  29.5315380
  46.9459770   2.6634280  19.8900970  47.3389340   2.9806480  19.0769660
  47.3076620   1.7846160  20.0045490  36.1694170   3.1955200  13.3233890
  36.0868840   4.1385960  13.4648880  35.8177230   3.0530110  12.4446240
  47.5314910   5.2540030  23.9851750  46.7996030   5.7626840  24.3341850
  47.1339250   4.4370010  23.6840530  44.0312450   2.9306310  15.3811000
  44.1525270   2.8892790  16.3296820  43.6460960   3.7930460  15.2257730
  43.0433950   5.2407450  14.7794300  42.4750850   4.7925700  14.1530210
  43.7522950   5.6000230  14.2459450  38.1203130   9.1419470  28.6561030
  37.7357920   8.5013140  29.2543990  38.4315320   9.8455590  29.2255760
  44.2700270   5.9896010  24.1369650  44.6370400   5.5154580  24.8830990
  44.0805330   6.8637580  24.4777990  42.0599640   5.0304650  26.4553860
  41.7556710   5.9096630  26.6804220  43.0146100   5.0904440  26.4911300
  40.5881430   9.2365640  17.0520710  39.8143690   8.6963260  16.8919430
  41.3176060   8.7172250  16.7138470  51.3469410   8.2331000  22.8447100
  52.0668530   8.7286290  22.4543210  51.1451230   7.5548890  22.2000970
  46.7288210   8.3040060  28.7316100  46.6625520   7.3835730  28.4773690
  46.0993350   8.4015500  29.4460740  49.5227740   3.9988610  15.2838650
  50.4107360   4.3105840  15.1089990  49.4932830   3.1260860  14.8919230
  40.6318830   8.9046020  20.6899520  41.1497500   8.1014280  20.6356410
  40.1802850   8.8425160  21.5316350  45.5188330  10.1712300  15.9626820
  45.8604030  10.9154530  15.4670140  44.6901040  10.4843420  16.3251650
  38.1163370   5.8707390  27.6025220  37.7578310   6.5361240  28.1898560
  37.8217930   5.0390940  27.9737840  41.3176490   6.3291630  30.4864770
  41.0176630   6.4748810  29.5892590  42.0887730   5.7696920  30.3938160
  46.6604940  11.1260630  28.4819900  46.6749480  10.1941590  28.2638810
  45.9530040  11.2120390  29.1209670  51.7942010   5.3100450  14.7518510
  51.7105730   5.7414670  13.9014950  52.5136200   5.7698800  15.1845330
  52.8716150   7.7667970  27.8288480  52.1464340   8.3596750  27.6317870
  53.3991610   7.7591510  27.0301850  52.8229260  12.1642710  17.4800640
  52.1805420  11.5098330  17.7544360  52.4359920  12.5697800  16.7041310
  48.4015740   9.4928140  21.3272330  48.7539560   8.8956270  20.6673700
  47.5178070   9.1672370  21.4980580  44.4879020  10.2525830  18.7342740
  45.1750150  10.7995040  19.1150330  43.7011440  10.7966560  18.7692350
  36.6271420   5.8698650  14.2259820  37.4966270   6.1523450  14.5095740
  36.1361740   6.6834520  14.1108630  43.7906230   7.2571860  18.3468100
  44.2469010   8.0677110  18.5728290  43.4394440   6.9395000  19.1786590
  46.0938840  12.7678200  25.5760400  46.7381060  12.9737580  26.2533820
  46.4568280  12.0066600  25.1231250  47.3670920  10.7710550  24.2937850
  48.0093150  10.0703710  24.4070020  47.8920270  11.5508990  24.1134740
  51.2126640  11.0559170  14.0176990  50.9864220  10.3389610  14.6101630
  50.8222840  10.8071610  13.1798740  49.1408540  11.5705450  27.4973910
  49.4764780  12.1572140  28.1751830  48.2208880  11.4398160  27.7271700
  36.9942670  15.0826030  14.7921450  37.3540310  15.6815370  14.1378720
  36.8535010  15.6285920  15.5656480  50.7942890   8.9731110  15.6791150
  50.5064590   9.4343800  16.4669030  51.5895060   8.5128880  15.9475370
  36.9784530  13.3480890  29.2663850  37.0875650  12.4075630  29.1259240
  36.3265090  13.6135640  28.6177580  44.9697120  11.6196780  30.6661970
  44.6493990  10.9006020  31.2107660  44.2955480  12.2951850  30.7398030
  43.0111290  12.4657230  15.6095120  43.0021390  13.1986920  14.9939630
  42.0909650  12.2188810  15.7022080  38.6117930   7.6872120  16.3541880
  38.0045880   8.4271020  16.3637180  39.0867280   7.7771480  15.5280080
  45.9970890  12.5285470  14.2720310  46.0982870  12.3249460  13.3422290
  45.0972630  12.2743750  14.4768090  43.5196780   3.0865830  18.2544210
  42.8112930   3.5552170  18.6957820  43.8041260   2.4287840  18.8889400
  45.1452710   4.5062530  26.2536740  45.6437960   4.9808350  26.9188590
  45.2875660   3.5826050  26.4606770  44.6389000  15.0471790  18.9667980
  44.8930500  15.0093180  18.0447350  43.6901480  14.9205120  18.9596230
  50.6441580   5.9663670  20.5426490  49.7031720   5.9813900  20.7174180
  50.9585650   5.1799630  20.9886790  40.6223220   7.6483270  14.1030450
  41.3886490   7.5364630  14.6655880  40.6997910   6.9521240  13.4507220
  39.3169980   5.0808340  14.7863340  39.3973570   4.1335850  14.8980740
  40.2089730   5.4115220  14.8924000  52.6467160  13.1372520  22.2180750
  52.7714580  13.9603690  22.6904560  53.5132720  12.9263250  21.8704900
  40.1184690  15.2303730  21.8897880  40.8547170  14.6819190  22.1606450
  40.5025610  16.0959740  21.7503870  37.0030170  11.2977300  17.7639390
  36.0769950  11.5398440  17.7544800  37.4686600  12.1251560  17.6424140
  39.1242970  14.4149800  31.0783460  39.9255700  14.7361850  31.4918860
  38.6094790  14.0545380  31.8003370  43.2287000  14.4034040  13.7123450
  44.0215610  14.6922870  13.2605240  42.7091350  13.9726210  13.0335930
  47.9607600  10.5229670  31.0258870  47.3545760  10.5461270  30.2854620
  47.6561710   9.7912710  31.5626120  49.3907970  14.2509960  29.6368280
  50.3429720  14.1667980  29.5868520  49.2436190  14.9151670  30.3102070
  52.2817170  13.6304170  15.1360190  51.9958680  13.2169310  14.3214370
  52.0836720  14.5591880  15.0160710  36.8440780   6.9023260  30.0219510
  37.3479800   6.3230540  30.5935740  36.1048200   7.1863490  30.5595880
  43.7464400   9.6237450  13.5765800  43.6415040   9.0089800  14.3027180
  43.5788620   9.1003340  12.7928810  43.8978720   8.3094250  29.5555030
  43.1324390   8.8779250  29.4709700  44.0794680   8.0170460  28.6623260
  46.9867130   8.6857480  14.1807790  46.4377230   9.1326780  14.8250530
  47.6086390   8.1806730  14.7045460  51.0402070  10.0399580  30.1130050
  51.7811540  10.3775340  29.6097510  50.2774750  10.2091640  29.5599820
  38.8763860   5.0452850  30.9169580  38.9169200   4.7466720  31.8254810
  39.7309360   5.4460460  30.7577100  42.6542250   7.6448400  16.0773090
  43.0758670   7.4788270  16.9204480  42.7793090   6.8348630  15.5828230
  40.8169670   3.6244950  28.8844070  40.2866130   3.1335900  28.2567410
  41.4857740   4.0529150  28.3502000  45.1669890   6.6686010  13.3250190
  45.6875550   5.9535030  12.9591340  45.8138290   7.3071880  13.6250700
  49.7147730   8.0914410  28.6485260  50.1288750   8.2459490  29.4975680
  48.7798730   8.2169630  28.8111040  50.1869900   5.4310570  30.6524410
  50.7690670   4.6762890  30.5644890  50.3631670   5.9618010  29.8755890
  44.4762960   8.0434890  26.6181190  44.8951070   8.8867620  26.4457430
  43.5571590   8.1806930  26.3887970  46.8126860   5.7751070  28.0019030
  46.9323070   5.1792210  28.7413870  47.6720860   5.8120760  27.5820330
  49.1514760   6.3288260  26.5781540  48.6249980   6.8530880  25.9746680
  49.4946100   6.9615650  27.2091270  41.5501150   3.7181630  13.0231250
  41.3490210   2.8548990  13.3844590  41.3793200   3.6314990  12.0852850
  42.3270380  14.3487900  27.7338920  41.7891470  15.0733960  27.4147620
  42.5804340  13.8718240  26.9436260  43.5795630   2.3172420  29.2594850
  44.1695320   2.0088270  29.9472670  42.7615870   1.8452170  29.4154750
  45.1832590  15.5839110  27.9925570  45.1091290  16.4874250  28.2997940
  44.2811430  15.2651010  27.9647640  45.7317920  14.7497620  15.6151930
  46.6268710  15.0882590  15.6370690  45.7635550  14.0277030  14.9876210
  39.3714080  10.1224670  13.8438930  39.8088950  10.6654340  14.4996510
  39.8561810   9.2971620  13.8535270  36.5859880  12.9113700  21.2959190
  36.9162890  12.0434760  21.0637830  37.0150880  13.1172220  22.1264150
  41.1821800  11.2422710  18.9561160  40.8817340  11.1187680  19.8565070
  41.0759290  10.3831300  18.5476890  37.0750090  13.7784290  24.0340820
  36.6381080  13.9585090  24.8664970  37.6427770  14.5358910  23.8922540
  52.7112270  13.2801290  28.3218130  52.1114260  13.3393850  27.5782050
  52.8406170  12.3406270  28.4514980  53.9513720  11.0219110  13.6587840
  53.1206680  11.0895760  14.1295070  54.1285550  11.9123230  13.3554700
  53.4070180   7.7666590  16.1622040  54.1689090   8.3363240  16.2681730
  53.4224550   7.1993790  16.9330350  36.9074520   6.2904520  20.3929700
  36.2523360   6.0216160  19.7489400  37.7452470   6.1809000  19.9431680
  54.4130150   8.6216690  21.0063970  54.7838980   7.8384010  20.5999940
  55.0532080   9.3105790  20.8281270  51.3963910  10.0053270  26.4194290
  50.5823750  10.4350430  26.6820080  51.8038110  10.6171680  25.8063340
  53.4589350   8.0600960  13.3194560  53.7338190   8.9679840  13.1913780
  53.2700090   7.9963490  14.2556550  53.3554690   5.9969950  18.3123990
  52.9798290   5.2297880  17.8805280  52.6257810   6.3792650  18.7998920
  37.9450450   6.6757090  24.9333040  38.3123490   6.5884490  25.8129060
  37.3761270   5.9123640  24.8339900  52.7454310   5.1441470  27.9463510
  52.5140400   4.9154220  27.0461460  53.0058860   6.0641020  27.9008400
  37.4966450   3.5866180  28.8391460  36.6022500   3.5532940  29.1785170
  38.0364000   3.7852970  29.6042710  36.1212600   3.5003450  16.3355030
  35.2176680   3.7633650  16.1606690  36.6053220   3.7714620  15.5554990
  52.6305650   4.2227440  21.6131230  53.1543130   3.7290090  20.9821400
  53.2165070   4.3577800  22.3578800  52.8095370   4.3067310  25.1350780
  51.8598080   4.2730850  25.2495770  52.9908380   5.2167420  24.9000550
  38.6639810   2.5568990  14.2449410  39.3731510   2.1352210  13.7596690
  37.9479750   2.6244220  13.6132760  52.1205620   3.4800790  17.5523640
  52.6164740   3.2471660  18.3372520  51.9221690   2.6412630  17.1361280
  51.4539960  14.7571870  19.9462560  52.0499030  14.4356440  19.2696980
  51.7118110  14.2843690  20.7375830  39.3602530  11.1889780  30.0953190
  39.3172160  10.8182690  30.9767650  39.4913540  12.1267350  30.2355010
  43.0608560  12.7449370  25.6962910  42.8199920  13.0123930  24.8093430
  44.0011200  12.9155100  25.7513770  54.3212720  14.7643750  26.4973550
  53.8271000  15.1612620  25.7800680  53.7126010  14.1392960  26.8910830
  39.1990560  14.1352030  27.2150970  38.6050880  14.0036730  27.9541010
  39.1914400  13.2990170  26.7493070  52.0052170  15.4067170  23.7760290
  51.5455140  16.1582980  23.4018310  51.3764630  14.6873640  23.7175090
  38.8302790  11.5010410  26.1659010  38.1036850  10.8815700  26.0984960
  38.8911940  11.8951020  25.2957090  42.4347890  13.7155410  22.9508420
  42.9512910  13.1042770  22.4256680  43.0845270  14.2184190  23.4419430
  45.1743390  14.6063900  23.7777400  45.4621200  14.3518200  22.9010410
  45.6866610  14.0541260  24.3682970  37.1132790  14.8184800  19.3755770
  36.9454830  14.1855480  20.0737660  36.2467300  15.0244200  19.0249960
  38.7195490  13.5118030  16.8205910  38.1943110  13.8926060  16.1167870
  38.6440070  14.1368800  17.5415620  45.2415750  15.5280000  31.1445600
  46.1683060  15.2924270  31.1881560  45.2266180  16.3552000  30.6631630
  53.4760810  15.0705570  18.1419850  53.6513000  14.3843310  17.4980770
  52.7782380  15.5952620  17.7496520  41.3188460  15.4600410  15.6955160
  42.0507280  15.1759690  15.1479050  41.5782130  15.2213690  16.5854540
  40.4803250  11.5765140  15.7001490  39.8512130  12.0450240  16.2487320
  40.5951080  10.7314360  16.1347680  51.8093310  14.7549860  30.9686640
  52.6018630  14.2599090  30.7612600  52.1026460  15.4340000  31.5762250
  46.0671010   7.4049820   3.7311960  45.2913110   6.9250260   4.0210530
  46.7183940   6.7255470   3.5568120  40.0836840   7.7169630   4.6087720
  39.2521720   7.4618340   5.0084230  40.6917820   7.7880400   5.3445640
  50.0878440  11.8110010   2.5111090  49.6259970  11.0397250   2.8398260
  50.9003990  11.8376080   3.0163540  40.0638100  11.7509720   4.8045740
  40.3666140  10.8607460   4.6255960  40.8081690  12.3079940   4.5767990
  36.4561800   5.2777170   4.2769810  37.0277910   4.5099370   4.2773450
  36.4563340   5.5765930   3.3676420  45.5080000  10.0807010   3.7382120
  45.4388280   9.1396950   3.5771250  46.2699860  10.1708420   4.3104690
  46.5385170   2.8877390   3.9651050  46.9149990   2.0149270   3.8524720
  46.4404680   3.2236090   3.0741490  38.3173340   3.1822030   4.6721080
  38.9983450   3.4460400   5.2908480  38.0021390   2.3422900   5.0059090
  42.5097910   4.2289390   3.7593670  43.0176130   4.7270360   4.3998690
  43.0411150   3.4524590   3.5833030  54.6108840   2.3994580   7.4623020
  53.9061010   2.7876290   6.9438130  54.8766760   3.0944870   8.0643950
  42.0436860   8.5083130   6.2030590  41.7106240   9.1352050   6.8451660
  42.2203540   9.0345010   5.4232260  50.5570770   2.3228210   3.6706930
  49.8526340   2.6113100   4.2510040  50.9182930   3.1328320   3.3106490
  41.2555960  10.4763930   8.0179770  41.8729960  11.1515010   7.7364220
  40.3949080  10.8851910   7.9267270  52.1733550  11.9403340   5.9334410
  51.4897070  12.6102450   5.9251080  52.7127840  12.1383990   5.1679270
  53.6257690   1.7683000   4.0616140  52.6782600   1.8021980   4.1931570
  53.9507680   2.5821950   4.4465500  49.7092290  13.7847470   4.6479590
  49.7219450  13.3809760   3.7801850  49.1567510  14.5594760   4.5441020
  49.1077730   8.6877310   5.9762200  49.5246520   8.4737420   5.1415660
  49.8317550   8.9450100   6.5470820  53.0539830   7.0864530   6.0678440
  52.2258460   7.1557620   5.5928570  53.6490310   7.6718840   5.5994270
  50.0181840   3.8733850   7.0133310  49.6053020   4.6987560   7.2673300
  49.2857790   3.2878890   6.8209670  42.6196330  10.3461310   4.0391190
  42.3224620   9.7406780   3.3598970  43.5696150  10.3838620   3.9280550
  40.8643250   3.4336960   5.6551020  41.4157840   3.5432300   4.8804270
  41.3786760   3.8074560   6.3706250  50.7081940  13.9193180   7.7014290
  50.2312500  14.7265370   7.5086900  50.0243730  13.2671510   7.8540500
  41.7114760  10.0843000  10.6898990  40.8143290  10.3082970  10.9372390
  41.7367630  10.2077940   9.7410390  40.5385980   6.9556320   9.2656360
  40.3993750   7.8279120   9.6343760  39.6567340   6.6129130   9.1204300
  42.3366330  12.8978020  11.4741510  42.3081760  13.3020970  10.6069940
  42.1731300  11.9688380  11.3113110  54.2881150  13.6805120  12.7705680
  54.7640870  14.1588010  13.4494760  54.9088310  13.6122610  12.0451180
  36.4904630   8.7253870   5.1827270  36.5685050   8.8602640   4.2382990
  37.1046310   8.0169760   5.3755390  53.6914400  10.8717970   9.9305690
  53.8177460  10.6329850   9.0122870  53.7335780  10.0402510  10.4027770
  47.5531140  14.5745970   8.5000500  48.0675810  14.4853980   9.3022930
  46.7100220  14.9205670   8.7928410  53.5438410   2.9250430  10.8955430
  52.9282680   3.4330100  10.3670890  53.2234830   2.0248760  10.8381370
  36.5464150   9.7668040   7.7221730  36.7095190   9.2973400   6.9041100
  37.0116600   9.2591600   8.3870570  50.6057240   2.9851270   9.4914280
  49.7550830   2.6857020   9.8123350  50.4459030   3.2293280   8.5798100
  47.7006950   4.4853020  11.5913070  48.0260360   3.6516770  11.2515300
  48.4887280   5.0081540  11.7391400  43.5496350   4.9192950  11.1523820
  43.4539950   3.9787680  11.0024220  44.3928330   5.1408020  10.7571890
  47.5314910   5.2540030   5.2108260  46.7996030   5.7626840   5.5598360
  47.1339250   4.4370010   4.9097040  38.1203130   9.1419470   9.8817540
  37.7357920   8.5013140  10.4800500  38.4315320   9.8455590  10.4512270
  44.2700270   5.9896010   5.3626160  44.6370400   5.5154580   6.1087500
  44.0805330   6.8637580   5.7034500  42.0599640   5.0304650   7.6810370
  41.7556710   5.9096630   7.9060730  43.0146100   5.0904440   7.7167810
  51.3469410   8.2331000   4.0703610  52.0668530   8.7286290   3.6799720
  51.1451230   7.5548890   3.4257480  46.7288210   8.3040060   9.9572610
  46.6625520   7.3835730   9.7030200  46.0993350   8.4015500  10.6717250
  40.6318830   8.9046020   1.9156030  41.1497500   8.1014280   1.8612920
  40.1802850   8.8425160   2.7572860  38.1163370   5.8707390   8.8281730
  37.7578310   6.5361240   9.4155070  37.8217930   5.0390940   9.1994350
  41.3176490   6.3291630  11.7121280  41.0176630   6.4748810  10.8149100
  42.0887730   5.7696920  11.6194670  46.6604940  11.1260630   9.7076410
  46.6749480  10.1941590   9.4895320  45.9530040  11.2120390  10.3466180
  52.8716150   7.7667970   9.0544990  52.1464340   8.3596750   8.8574380
  53.3991610   7.7591510   8.2558360  48.4015740   9.4928140   2.5528840
  48.7539560   8.8956270   1.8930210  47.5178070   9.1672370   2.7237090
  46.0938840  12.7678200   6.8016910  46.7381060  12.9737580   7.4790330
  46.4568280  12.0066600   6.3487760  47.3670920  10.7710550   5.5194360
  48.0093150  10.0703710   5.6326530  47.8920270  11.5508990   5.3391250
  49.1408540  11.5705450   8.7230420  49.4764780  12.1572140   9.4008340
  48.2208880  11.4398160   8.9528210  36.9784530  13.3480890  10.4920360
  37.0875650  12.4075630  10.3515750  36.3265090  13.6135640   9.8434090
  44.9697120  11.6196780  11.8918480  44.6493990  10.9006020  12.4364170
  44.2955480  12.2951850  11.9654540  45.1452710   4.5062530   7.4793250
  45.6437960   4.9808350   8.1445100  45.2875660   3.5826050   7.6863280
  50.6441580   5.9663670   1.7683000  49.7031720   5.9813900   1.9430690
  50.9585650   5.1799630   2.2143300  52.6467160  13.1372520   3.4437260
  52.7714580  13.9603690   3.9161070  53.5132720  12.9263250   3.0961410
  40.1184690  15.2303730   3.1154390  40.8547170  14.6819190   3.3862960
  40.5025610  16.0959740   2.9760380  39.1242970  14.4149800  12.3039970
  39.9255700  14.7361850  12.7175370  38.6094790  14.0545380  13.0259880
  47.9607600  10.5229670  12.2515380  47.3545760  10.5461270  11.5111130
  47.6561710   9.7912710  12.7882630  49.3907970  14.2509960  10.8624790
  50.3429720  14.1667980  10.8125030  49.2436190  14.9151670  11.5358580
  36.8440780   6.9023260  11.2476020  37.3479800   6.3230540  11.8192250
  36.1048200   7.1863490  11.7852390  43.8978720   8.3094250  10.7811540
  43.1324390   8.8779250  10.6966210  44.0794680   8.0170460   9.8879770
  51.0402070  10.0399580  11.3386560  51.7811540  10.3775340  10.8354020
  50.2774750  10.2091640  10.7856330  38.8763860   5.0452850  12.1426090
  38.9169200   4.7466720  13.0511320  39.7309360   5.4460460  11.9833610
  40.8169670   3.6244950  10.1100580  40.2866130   3.1335900   9.4823920
  41.4857740   4.0529150   9.5758510  49.7147730   8.0914410   9.8741770
  50.1288750   8.2459490  10.7232190  48.7798730   8.2169630  10.0367550
  50.1869900   5.4310570  11.8780920  50.7690670   4.6762890  11.7901400
  50.3631670   5.9618010  11.1012400  44.4762960   8.0434890   7.8437700
  44.8951070   8.8867620   7.6713940  43.5571590   8.1806930   7.6144480
  46.8126860   5.7751070   9.2275540  46.9323070   5.1792210   9.9670380
  47.6720860   5.8120760   8.8076840  49.1514760   6.3288260   7.8038050
  48.6249980   6.8530880   7.2003190  49.4946100   6.9615650   8.4347780
  42.3270380  14.3487900   8.9595430  41.7891470  15.0733960   8.6404130
  42.5804340  13.8718240   8.1692770  43.5795630   2.3172420  10.4851360
  44.1695320   2.0088270  11.1729180  42.7615870   1.8452170  10.6411260
  45.1832590  15.5839110   9.2182080  45.1091290  16.4874250   9.5254450
  44.2811430  15.2651010   9.1904150  36.5859880  12.9113700   2.5215700
  36.9162890  12.0434760   2.2894340  37.0150880  13.1172220   3.3520660
  37.0750090  13.7784290   5.2597330  36.6381080  13.9585090   6.0921480
  37.6427770  14.5358910   5.1179050  52.7112270  13.2801290   9.5474640
  52.1114260  13.3393850   8.8038560  52.8406170  12.3406270   9.6771490
  54.4130150   8.6216690   2.2320480  54.7838980   7.8384010   1.8256450
  55.0532080   9.3105790   2.0537780  51.3963910  10.0053270   7.6450800
  50.5823750  10.4350430   7.9076590  51.8038110  10.6171680   7.0319850
  37.9450450   6.6757090   6.1589550  38.3123490   6.5884490   7.0385570
  37.3761270   5.9123640   6.0596410  52.7454310   5.1441470   9.1720020
  52.5140400   4.9154220   8.2717970  53.0058860   6.0641020   9.1264910
  37.4966450   3.5866180  10.0647970  36.6022500   3.5532940  10.4041680
  38.0364000   3.7852970  10.8299220  52.6305650   4.2227440   2.8387740
  53.1543130   3.7290090   2.2077910  53.2165070   4.3577800   3.5835310
  52.8095370   4.3067310   6.3607290  51.8598080   4.2730850   6.4752280
  52.9908380   5.2167420   6.1257060  39.3602530  11.1889780  11.3209700
  39.3172160  10.8182690  12.2024160  39.4913540  12.1267350  11.4611520
  43.0608560  12.7449370   6.9219420  42.8199920  13.0123930   6.0349940
  44.0011200  12.9155100   6.9770280  54.3212720  14.7643750   7.7230060
  53.8271000  15.1612620   7.0057190  53.7126010  14.1392960   8.1167340
  39.1990560  14.1352030   8.4407480  38.6050880  14.0036730   9.1797520
  39.1914400  13.2990170   7.9749580  52.0052170  15.4067170   5.0016800
  51.5455140  16.1582980   4.6274820  51.3764630  14.6873640   4.9431600
  38.8302790  11.5010410   7.3915520  38.1036850  10.8815700   7.3241470
  38.8911940  11.8951020   6.5213600  42.4347890  13.7155410   4.1764930
  42.9512910  13.1042770   3.6513190  43.0845270  14.2184190   4.6675940
  45.1743390  14.6063900   5.0033910  45.4621200  14.3518200   4.1266920
  45.6866610  14.0541260   5.5939480  45.2415750  15.5280000  12.3702110
  46.1683060  15.2924270  12.4138070  45.2266180  16.3552000  11.8888140
  51.8093310  14.7549860  12.1943150  52.6018630  14.2599090  11.9869110
  52.1026460  15.4340000  12.8018760  29.1609480  61.9501270  58.1733160
  29.0803530  61.0355880  57.9024870  28.7473900  62.4468340  57.4672870
  27.2927520  63.7280290  60.0542430  26.5169620  63.2480730  60.3441000
  27.9440450  63.0485940  59.8798590  19.7185300  59.0001990  54.7160580
  18.8302000  59.3417960  54.6140460  20.0026490  58.8002310  53.8241410
  17.6818310  61.6007640  60.6000280  18.2534420  60.8329840  60.6003920
  17.6819850  61.8996400  59.6906890  26.7336510  66.4037480  60.0612590
  26.6644790  65.4627420  59.9001720  27.4956370  66.4938890  60.6335160
  27.7641680  59.2107860  60.2881520  28.1406500  58.3379740  60.1755190
  27.6661190  59.5466560  59.3971960  21.8946690  57.5833490  55.7498960
  22.0013440  58.4837220  56.0567720  20.9839050  57.5351460  55.4593610
  31.5465800  56.7058300  57.2209860  32.3675420  56.2154870  57.2635340
  31.5799880  57.2955960  57.9741700  23.7354420  60.5519860  60.0824140
  24.2432640  61.0500830  60.7229160  24.2667660  59.7755060  59.9063500
  28.4061610  65.3037730  55.8477460  27.7878880  65.7687180  55.2840180
  28.9184860  65.9965210  56.2646970  31.7827280  58.6458680  59.9937400
  31.0782850  58.9343570  60.5740510  32.1439440  59.4558790  59.6336960
  17.7744810  65.9894260  53.2217090  17.3972790  66.4781360  52.4901990
  18.0317880  66.6619540  53.8523620  34.8514200  58.0913470  60.3846610
  33.9039110  58.1252450  60.5162040  35.1764190  58.9052420  60.7695970
  25.3833740  54.3910650  58.6802600  25.6908720  53.8357540  57.9638100
  24.4534440  54.5255110  58.4975590  32.2294220  66.8294160  56.0600230
  32.1190550  65.8868490  56.1849650  32.2262470  67.1909800  56.9462990
  27.7714500  62.4559480  55.4162720  26.8443780  62.3896860  55.6451190
  27.9239320  63.3939610  55.3017960  27.7583580  58.7276480  52.4129880
  26.8187250  58.8890440  52.4982340  28.0766840  59.4462160  51.8665870
  31.8011790  64.0179780  55.9197970  31.1824210  63.6799330  55.2724270
  31.7836240  63.3739540  56.6277160  23.3771140  62.9824220  58.1982450
  22.9728140  62.2701470  57.7028350  23.4634260  62.6377460  59.0870490
  23.8452840  66.6691780  60.3621660  23.5481130  66.0637250  59.6829440
  24.7952660  66.7069090  60.2511020  29.9776490  63.2566590  52.9270720
  30.4169770  62.4189020  52.7808540  30.6904910  63.8895990  53.0134860
  33.5593630  54.5109400  51.2411760  33.2466290  54.6036230  52.1410830
  34.3206100  55.0890430  51.1909190  20.0775770  61.8769200  55.6989100
  19.9573370  62.6031290  55.0870370  19.7676660  61.1072110  55.2217010
  18.9608770  66.7484530  57.9163920  18.5536850  66.8899120  57.0617520
  19.8521780  66.4644690  57.7135130  22.5439430  55.2204270  59.0812770
  22.1007580  56.0013810  58.7497290  23.1024420  55.5434160  59.7883710
  25.6598250  54.8414970  53.9618600  25.0352430  54.8374840  54.6871910
  25.5728370  53.9745930  53.5654570  24.5815330  55.7651600  60.9402370
  24.8787660  56.6714430  60.8594390  25.1300890  55.2770380  60.3261940
  22.3353650  60.3437840  56.8094020  22.1094570  60.1275010  57.7140640
  21.5546180  60.7766300  56.4639990  29.5651410  60.3501210  55.4084670
  28.9660300  61.0737010  55.2248290  30.1131020  60.2877990  54.6261120
  28.1716280  58.9864750  57.4387950  28.5645850  59.3036950  56.6256640
  28.5333130  58.1076630  57.5532470  17.2080450  55.5765550  59.6618150
  16.9193500  56.1468410  60.3743130  17.9526210  55.0970000  60.0249380
  17.3950680  59.5185670  50.8720870  17.3125350  60.4616430  51.0135860
  17.0433740  59.3760580  49.9933220  25.1948810  58.2524700  59.9391220
  25.1984870  57.8114650  59.0895760  26.0899930  58.5742030  60.0463040
  21.0451190  58.1351190  58.8985430  20.7051240  58.6126420  59.6552480
  20.2828510  57.6816310  58.5386530  25.2568960  59.2536780  52.9297980
  25.3781780  59.2123260  53.8783800  24.8717470  60.1160930  52.7744710
  24.2690460  61.5637920  52.3281280  23.7007360  61.1156170  51.7017190
  24.9779460  61.9230700  51.7946430  18.3597270  57.0570170  57.8150100
  18.0744190  56.6925840  58.6528720  18.2976130  56.3250630  57.2013240
  21.8137940  65.5596110  54.6007690  21.0400200  65.0193730  54.4406410
  22.5432570  65.0402720  54.2625450  32.5725920  64.5561470  60.3934080
  33.2925040  65.0516760  60.0030190  32.3707740  63.8779360  59.7487950
  28.0335860  55.9499430  54.5363470  27.2200470  55.4512600  54.4608780
  27.8397810  56.7897680  54.1199820  30.7484250  60.3219080  52.8325630
  31.6363870  60.6336310  52.6576970  30.7189340  59.4491330  52.4406210
  21.8575340  65.2276490  58.2386500  22.3754010  64.4244750  58.1843390
  21.4059360  65.1655630  59.0803330  26.7444840  66.4942770  53.5113800
  27.0860540  67.2385000  53.0157120  25.9157550  66.8073890  53.8738630
  33.0198520  61.6330920  52.3005490  32.9362240  62.0645140  51.4501930
  33.7392710  62.0929270  52.7332310  29.6272250  65.8158610  58.8759310
  29.9796070  65.2186740  58.2160680  28.7434580  65.4902840  59.0467560
  25.7135530  66.5756300  56.2829720  26.4006660  67.1225510  56.6637310
  24.9267950  67.1197030  56.3179330  17.8527930  62.1929120  51.7746800
  18.7222780  62.4753920  52.0582720  17.3618250  63.0064990  51.6595610
  25.0162740  63.5802330  55.8955080  25.4725520  64.3907580  56.1215270
  24.6650950  63.2625470  56.7273570  20.9174520  53.9239980  56.3677600
  20.7889150  53.9157880  57.3162520  20.0936540  54.2623070  56.0168610
  32.4383150  67.3789640  51.5663970  32.2120730  66.6620080  52.1588610
  32.0479350  67.1302080  50.7285720  32.0199400  65.2961580  53.2278130
  31.7321100  65.7574270  54.0156010  32.8151570  64.8359350  53.4962350
  19.8374440  64.0102590  53.9028860  19.2302390  64.7501490  53.9124160
  20.3123790  64.1001950  53.0767060  32.7769260  57.1310350  54.3873310
  32.1482420  57.2356020  53.6731540  32.2821180  57.3507130  55.1767190
  24.7453290  59.4096300  55.8031190  24.0369440  59.8782640  56.2444800
  25.0297770  58.7518310  56.4376380  28.7768720  56.1346960  57.2426980
  28.6536500  56.1533090  56.2936490  29.7253280  56.1825900  57.3625380
  22.9488310  57.7181380  53.1781900  23.7978840  58.1551530  53.1122090
  22.5819580  58.0301640  54.0053960  31.8698090  62.2894140  58.0913470
  30.9288230  62.3044370  58.2661160  32.1842160  61.5030100  58.5373770
  21.8479730  63.9713740  51.6517430  22.6143000  63.8595100  52.2142860
  21.9254420  63.2751710  50.9994200  20.5426490  61.4038810  52.3350320
  20.6230080  60.4566320  52.4467720  21.4346240  61.7345690  52.4410980
  24.9720910  65.9467920  51.1252780  24.8671550  65.3320270  51.8514160
  24.8045130  65.4233810  50.3415790  28.2123640  65.0087950  51.7294770
  27.6633740  65.4557250  52.3737510  28.8342900  64.5037200  52.2532440
  23.8798760  63.9678870  53.6260070  24.3015180  63.8018740  54.4691460
  24.0049600  63.1579100  53.1315210  26.3926400  62.9916480  50.8737170
  26.9132060  62.2765500  50.5078320  27.0394800  63.6302350  51.1737680
  22.7757660  60.0412100  50.5718230  22.5746720  59.1779460  50.9331570
  22.6049710  59.9545460  49.6339830  30.2545970  54.8520330  53.1005110
  30.5348260  54.0088230  53.4564530  29.4811700  55.0843440  53.6143860
  21.5740460  57.1412720  50.5596110  21.8766360  57.1480150  49.6515260
  22.3135050  56.7910580  51.0563770  24.7925390  56.0847340  51.5452310
  24.4447390  55.4071330  50.9654760  24.9938160  55.6236850  52.3595700
  20.5970590  66.4455140  51.3925910  21.0345460  66.9884810  52.0483490
  21.0818320  65.6202090  51.4022250  34.6326690  64.0897060  53.7109020
  35.3945600  64.6593710  53.8168710  34.6481060  63.5224260  54.4817330
  18.1331030  62.6134990  57.9416680  17.4779870  62.3446630  57.2976380
  18.9708980  62.5039470  57.4918660  35.6386660  64.9447160  58.5550950
  36.0095490  64.1614480  58.1486920  36.2788590  65.6336260  58.3768250
  34.6845860  64.3831430  50.8681540  34.9594700  65.2910310  50.7400760
  34.4956600  64.3193960  51.8043530  31.0821470  57.4076280  52.1635170
  31.5006350  57.2207260  51.3231830  30.7757530  56.5555330  52.4738100
  34.5811200  62.3200420  55.8610970  34.2054800  61.5528350  55.4292260
  33.8514320  62.7023120  56.3485900  17.3469110  59.8233920  53.8842010
  16.4433190  60.0864120  53.7093670  17.8309730  60.0945090  53.1041970
  33.8562160  60.5457910  59.1618210  34.3799640  60.0520560  58.5308380
  34.4421580  60.6808270  59.9065780  19.8896320  58.8799460  51.7936390
  20.5988020  58.4582680  51.3083670  19.1736260  58.9474690  51.1619740
  19.5370480  54.9338790  50.8339040  20.2598610  55.4747730  51.1520260
  19.8095000  54.6602210  49.9580580  33.3462130  59.8031260  55.1010620
  33.8421250  59.5702130  55.8859500  33.1478200  58.9643100  54.6848260
  34.7749290  58.4392210  57.6348300  34.6648570  58.2848250  58.5730570
  35.5356880  57.9113150  57.3923710  35.6639560  56.2700130  50.8754440
  36.5888870  56.1381310  50.6672730  35.6415350  56.3492950  51.8290890
  35.7378050  57.0410790  53.5011150  34.9429550  56.9755910  54.0304060
  35.9421330  57.9761430  53.4896500  32.1697980  55.3707670  59.9509980
  32.6106070  55.3152770  59.1031580  31.9005570  56.2865680  60.0220160
  34.0336550  55.0022910  57.9618800  33.9724950  54.0584130  57.8149820
  34.8128580  55.1103000  58.5072260  18.9617320  54.9732050  54.4274610
  19.7196680  55.0860930  53.8538640  18.4994490  55.8101250  54.3818040
  25.5031130  57.0871320  57.4176920  24.6905640  56.7128210  57.0772800
  26.0072770  56.3316400  57.7198110  30.0056110  53.7513770  58.6559990
  30.6085480  54.3233980  59.1308510  29.2649100  54.3153210  58.4333890
  33.1490710  54.1535330  53.9300270  33.3441340  55.0518780  54.1967700
  32.3620580  53.9222410  54.4233220  21.3342470  55.4996100  52.9676580
  21.8635230  54.7125900  52.8384530  21.9670790  56.1787290  53.2012110
  23.5280310  55.2371240  56.0221970  22.8983050  54.5358550  56.1892100
  22.9885450  55.9975370  55.8055130  29.1609480  61.9501270  39.3989670
  29.0803530  61.0355880  39.1281380  28.7473900  62.4468340  38.6929380
  27.2927520  63.7280290  41.2798940  26.5169620  63.2480730  41.5697510
  27.9440450  63.0485940  41.1055100  21.3093350  64.0400100  42.1574700
  20.4778230  63.7848810  42.5571210  21.9174330  64.1110870  42.8932620
  19.7185300  59.0001990  35.9417090  18.8302000  59.3417960  35.8396970
  20.0026490  58.8002310  35.0497920  17.6818310  61.6007640  41.8256790
  18.2534420  60.8329840  41.8260430  17.6819850  61.8996400  40.9163400
  26.7336510  66.4037480  41.2869100  26.6644790  65.4627420  41.1258230
  27.4956370  66.4938890  41.8591670  18.9243180  57.0092000  43.6125720
  18.7446020  56.1117750  43.8928480  18.5223260  57.5563870  44.2872670
  27.7641680  59.2107860  41.5138030  28.1406500  58.3379740  41.4011700
  27.6661190  59.5466560  40.6228470  21.8946690  57.5833490  36.9755470
  22.0013440  58.4837220  37.2824230  20.9839050  57.5351460  36.6850120
  31.5465800  56.7058300  38.4466370  32.3675420  56.2154870  38.4891850
  31.5799880  57.2955960  39.1998210  19.5429850  59.5052500  42.2208060
  20.2239960  59.7690870  42.8395460  19.2277900  58.6653370  42.5546070
  23.7354420  60.5519860  41.3080650  24.2432640  61.0500830  41.9485670
  24.2667660  59.7755060  41.1320010  35.8365350  58.7225050  45.0110000
  35.1317520  59.1106760  44.4925110  36.1023270  59.4175340  45.6130930
  22.0190520  55.1918420  45.5744070  22.0208960  55.7090810  44.7689970
  21.1894830  54.7148600  45.5514000  28.4061610  65.3037730  37.0733970
  27.7878880  65.7687180  36.5096690  28.9184860  65.9965210  37.4903480
  23.2693370  64.8313600  43.7517570  22.9362750  65.4582520  44.3938640
  23.4460050  65.3575480  42.9719240  31.7827280  58.6458680  41.2193910
  31.0782850  58.9343570  41.7997020  32.1439440  59.4558790  40.8593470
  21.7005850  56.9028380  43.5814520  22.0422660  57.7470430  43.2868390
  20.7621660  57.0512120  43.6979860  17.7744810  65.9894260  34.4473600
  17.3972790  66.4781360  33.7158500  18.0317880  66.6619540  35.0780130
  34.8514200  58.0913470  41.6103120  33.9039110  58.1252450  41.7418550
  35.1764190  58.9052420  41.9952480  25.3833740  54.3910650  39.9059110
  25.6908720  53.8357540  39.1894610  24.4534440  54.5255110  39.7232100
  32.2294220  66.8294160  37.2856740  32.1190550  65.8868490  37.4106160
  32.2262470  67.1909800  38.1719500  30.3334240  65.0107780  43.5249180
  30.7503030  64.7967890  42.6902640  31.0574060  65.2680570  44.0957800
  27.7714500  62.4559480  36.6419230  26.8443780  62.3896860  36.8707700
  27.9239320  63.3939610  36.5274470  27.7583580  58.7276480  33.6386390
  26.8187250  58.8890440  33.7238850  28.0766840  59.4462160  33.0922380
  34.2796340  63.4095000  43.6165420  33.4514970  63.4788090  43.1415550
  34.8746820  63.9949310  43.1481250  31.8011790  64.0179780  37.1454480
  31.1824210  63.6799330  36.4980780  31.7836240  63.3739540  37.8533670
  31.2438350  60.1964320  44.5620290  30.8309530  61.0218030  44.8160280
  30.5114300  59.6109360  44.3696650  23.3771140  62.9824220  39.4238960
  22.9728140  62.2701470  38.9284860  23.4634260  62.6377460  40.3127000
  23.8452840  66.6691780  41.5878170  23.5481130  66.0637250  40.9085950
  24.7952660  66.7069090  41.4767530  22.0899760  59.7567430  43.2038000
  22.6414350  59.8662770  42.4291250  22.6043270  60.1305030  43.9193230
  22.9371270  66.4073470  48.2385970  22.0399800  66.6313440  48.4859370
  22.9624140  66.5308410  47.2897370  29.9776490  63.2566590  34.1527230
  30.4169770  62.4189020  34.0065050  30.6904910  63.8895990  34.2391370
  21.7642490  63.2786790  46.8143340  21.6250260  64.1509590  47.1830740
  20.8823850  62.9359600  46.6691280  33.5593630  54.5109400  32.4668270
  33.2466290  54.6036230  33.3667340  34.3206100  55.0890430  32.4165700
  20.0775770  61.8769200  36.9245610  19.9573370  62.6031290  36.3126880
  19.7676660  61.1072110  36.4473520  17.7161140  65.0484340  42.7314250
  17.7941560  65.1833110  41.7869970  18.3302820  64.3400230  42.9242370
  18.9608770  66.7484530  39.1420430  18.5536850  66.8899120  38.2874030
  19.8521780  66.4644690  38.9391640  34.9170910  67.1948440  47.4792670
  35.0433970  66.9560320  46.5609850  34.9592290  66.3632980  47.9514750
  34.7694920  59.2480900  48.4442410  34.1539190  59.7560570  47.9157870
  34.4491340  58.3479230  48.3868350  17.7720660  66.0898510  45.2708710
  17.9351700  65.6203870  44.4528080  18.2373110  65.5822070  45.9357550
  22.5439430  55.2204270  40.3069280  22.1007580  56.0013810  39.9753800
  23.1024420  55.5434160  41.0140220  26.8309240  58.0872790  45.9104600
  26.3688610  58.2955810  46.7224540  26.4287350  57.2732140  45.6075270
  31.8313750  59.3081740  47.0401260  30.9807340  59.0087490  47.3610330
  31.6715540  59.5523750  46.1285080  28.9263460  60.8083490  49.1400050
  29.2516870  59.9747240  48.8002280  29.7143790  61.3312010  49.2878380
  25.6598250  54.8414970  35.1875110  25.0352430  54.8374840  35.9128420
  25.5728370  53.9745930  34.7911080  24.5815330  55.7651600  42.1658880
  24.8787660  56.6714430  42.0850900  25.1300890  55.2770380  41.5518450
  22.3353650  60.3437840  38.0350530  22.1094570  60.1275010  38.9397150
  21.5546180  60.7766300  37.6896500  29.5651410  60.3501210  36.6341180
  28.9660300  61.0737010  36.4504800  30.1131020  60.2877990  35.8517630
  24.7752860  61.2423420  48.7010800  24.6796460  60.3018150  48.5511200
  25.6184840  61.4638490  48.3058870  28.1716280  58.9864750  38.6644460
  28.5645850  59.3036950  37.8513150  28.5333130  58.1076630  38.7788980
  19.9063400  57.6537090  46.8544580  19.5126790  58.5012300  47.0617360
  19.2181800  57.0163460  47.0453220  26.4808450  57.7372060  49.9241320
  25.7906770  57.5444260  50.5587410  27.2240750  58.0206700  50.4565620
  17.2080450  55.5765550  40.8874660  16.9193500  56.1468410  41.5999640
  17.9526210  55.0970000  41.2505890  17.3950680  59.5185670  32.0977380
  17.3125350  60.4616430  32.2392370  17.0433740  59.3760580  31.2189730
  28.7571420  61.5770500  42.7595240  28.0252540  62.0857310  43.1085340
  28.3595760  60.7600480  42.4584020  25.1948810  58.2524700  41.1647730
  25.1984870  57.8114650  40.3152270  26.0899930  58.5742030  41.2719550
  21.0451190  58.1351190  40.1241940  20.7051240  58.6126420  40.8808990
  20.2828510  57.6816310  39.7643040  25.2568960  59.2536780  34.1554490
  25.3781780  59.2123260  35.1040310  24.8717470  60.1160930  34.0001220
  29.2197330  57.0304180  42.1718180  29.2370070  57.4812830  43.0160030
  28.9712910  56.1309820  42.3851620  24.2690460  61.5637920  33.5537790
  23.7007360  61.1156170  32.9273700  24.9779460  61.9230700  33.0202940
  32.6468080  54.4436360  48.0104560  32.9713850  53.7126020  48.5362540
  32.6824590  54.1250000  47.1085550  19.3459640  65.4649940  47.4304520
  18.9614430  64.8243610  48.0287480  19.6571830  66.1686060  47.9999250
  25.4956780  62.3126480  42.9113140  25.8626910  61.8385050  43.6574480
  25.3061840  63.1868050  43.2521480  18.3597270  57.0570170  39.0406610
  18.0744190  56.6925840  39.8785230  18.2976130  56.3250630  38.4269750
  23.2856150  61.3535120  45.2297350  22.9813220  62.2327100  45.4547710
  24.2402610  61.4134910  45.2654790  21.8137940  65.5596110  35.8264200
  21.0400200  65.0193730  35.6662920  22.5432570  65.0402720  35.4881960
  32.5725920  64.5561470  41.6190590  33.2925040  65.0516760  41.2286700
  32.3707740  63.8779360  40.9744460  28.0335860  55.9499430  35.7619980
  27.2200470  55.4512600  35.6865290  27.8397810  56.7897680  35.3456330
  27.9544720  64.6270530  47.5059590  27.8882030  63.7066200  47.2517180
  27.3249860  64.7245970  48.2204230  30.7484250  60.3219080  34.0582140
  31.6363870  60.6336310  33.8833480  30.7189340  59.4491330  33.6662720
  21.8575340  65.2276490  39.4643010  22.3754010  64.4244750  39.4099900
  21.4059360  65.1655630  40.3059840  26.7444840  66.4942770  34.7370310
  27.0860540  67.2385000  34.2413630  25.9157550  66.8073890  35.0995140
  19.3419880  62.1937860  46.3768710  18.9834820  62.8591710  46.9642050
  19.0474440  61.3621410  46.7481330  22.5433000  62.6522100  49.2608260
  22.2433140  62.7979280  48.3636080  23.3144240  62.0927390  49.1681650
  33.0198520  61.6330920  33.5262000  32.9362240  62.0645140  32.6758440
  33.7392710  62.0929270  33.9588820  34.0972660  64.0898440  46.6031970
  33.3720850  64.6827220  46.4061360  34.6248120  64.0821980  45.8045340
  29.6272250  65.8158610  40.1015820  29.9796070  65.2186740  39.4417190
  28.7434580  65.4902840  40.2724070  25.7135530  66.5756300  37.5086230
  26.4006660  67.1225510  37.8893820  24.9267950  67.1197030  37.5435840
  17.8527930  62.1929120  33.0003310  18.7222780  62.4753920  33.2839230
  17.3618250  63.0064990  32.8852120  25.0162740  63.5802330  37.1211590
  25.4725520  64.3907580  37.3471780  24.6650950  63.2625470  37.9530080
  20.9174520  53.9239980  37.5934110  20.7889150  53.9157880  38.5419030
  20.0936540  54.2623070  37.2425120  32.4383150  67.3789640  32.7920480
  32.2120730  66.6620080  33.3845120  32.0479350  67.1302080  31.9542230
  17.9168450  55.6831100  47.0540810  17.2026970  55.8828020  47.6593420
  18.3363490  54.9070670  47.4255610  32.0199400  65.2961580  34.4534640
  31.7321100  65.7574270  35.2412520  32.8151570  64.8359350  34.7218860
  19.8374440  64.0102590  35.1285370  19.2302390  64.7501490  35.1380670
  20.3123790  64.1001950  34.3023570  29.4107230  58.1753410  44.8042260
  29.7788050  57.3548620  45.1321830  28.5505430  58.2355300  45.2197910
  32.7769260  57.1310350  35.6129820  32.1482420  57.2356020  34.8988050
  32.2821180  57.3507130  36.4023700  24.7453290  59.4096300  37.0287700
  24.0369440  59.8782640  37.4701310  25.0297770  58.7518310  37.6632890
  26.3709220  60.8293000  45.0280230  26.8694470  61.3038820  45.6932080
  26.5132170  59.9056520  45.2350260  28.7768720  56.1346960  38.4683490
  28.6536500  56.1533090  37.5193000  29.7253280  56.1825900  38.5881890
  22.9488310  57.7181380  34.4038410  23.7978840  58.1551530  34.3378600
  22.5819580  58.0301640  35.2310470  33.5776080  57.0460960  45.8708620
  33.0749680  57.7866360  46.2102430  34.3932740  57.4344960  45.5545410
  31.8698090  62.2894140  39.3169980  30.9288230  62.3044370  39.4917670
  32.1842160  61.5030100  39.7630280  21.8479730  63.9713740  32.8773940
  22.6143000  63.8595100  33.4399370  21.9254420  63.2751710  32.2250710
  20.5426490  61.4038810  33.5606830  20.6230080  60.4566320  33.6724230
  21.4346240  61.7345690  33.6667490  29.1864110  66.8460140  49.8002360
  28.5802270  66.8691740  49.0598110  28.8818220  66.1143180  50.3369610
  18.0697290  63.2253730  48.7963000  18.5736310  62.6461010  49.3679230
  17.3304710  63.5093960  49.3339370  24.9720910  65.9467920  32.3509290
  24.8671550  65.3320270  33.0770670  24.8045130  65.4233810  31.5672300
  25.1235230  64.6324720  48.3298520  24.3580900  65.2009720  48.2453190
  25.3051190  64.3400930  47.4366750  28.2123640  65.0087950  32.9551280
  27.6633740  65.4557250  33.5994020  28.8342900  64.5037200  33.4788950
  32.2658580  66.3630050  48.8873540  33.0068050  66.7005810  48.3841000
  31.5031260  66.5322110  48.3343310  20.1020370  61.3683320  49.6913070
  20.1425710  61.0697190  50.5998300  20.9565870  61.7690930  49.5320590
  23.8798760  63.9678870  34.8516580  24.3015180  63.8018740  35.6947970
  24.0049600  63.1579100  34.3571720  22.0426180  59.9475420  47.6587560
  21.5122640  59.4566370  47.0310900  22.7114250  60.3759620  47.1245490
  26.3926400  62.9916480  32.0993680  26.9132060  62.2765500  31.7334830
  27.0394800  63.6302350  32.3994190  30.9404240  64.4144880  47.4228750
  31.3545260  64.5689960  48.2719170  30.0055240  64.5400100  47.5854530
  31.4126410  61.7541040  49.4267900  31.9947180  60.9993360  49.3388380
  31.5888180  62.2848480  48.6499380  22.5298480  56.9137790  47.7384850
  22.4355350  56.2958540  47.0135720  21.9495870  57.6404080  47.5114760
  25.2959920  55.4711030  44.7712240  24.8477220  55.4935290  43.9257790
  24.6625120  55.0730050  45.3682540  25.7019470  64.3665360  45.3924680
  26.1207580  65.2098090  45.2200920  24.7828100  64.5037400  45.1631460
  28.0383370  62.0981540  46.7762520  28.1579580  61.5022680  47.5157360
  28.8977370  62.1351230  46.3563820  30.3771270  62.6518730  45.3525030
  29.8506490  63.1761350  44.7490170  30.7202610  63.2846120  45.9834760
  22.7757660  60.0412100  31.7974740  22.5746720  59.1779460  32.1588080
  22.6049710  59.9545460  30.8596340  24.8052140  58.6402890  48.0338340
  25.3951830  58.3318740  48.7216160  23.9872380  58.1682640  48.1898240
  29.6245570  58.2568700  48.2671360  28.9361090  57.5950240  48.2021350
  30.3451590  57.8106970  48.7119820  30.2545970  54.8520330  34.3261620
  30.5348260  54.0088230  34.6821040  29.4811700  55.0843440  34.8400370
  21.5740460  57.1412720  31.7852620  21.8766360  57.1480150  30.8771770
  22.3135050  56.7910580  32.2820280  24.7925390  56.0847340  32.7708820
  24.4447390  55.4071330  32.1911270  24.9938160  55.6236850  33.5852210
  20.5970590  66.4455140  32.6182420  21.0345460  66.9884810  33.2740000
  21.0818320  65.6202090  32.6278760  34.6326690  64.0897060  34.9365530
  35.3945600  64.6593710  35.0425220  34.6481060  63.5224260  35.7073840
  18.1331030  62.6134990  39.1673190  17.4779870  62.3446630  38.5232890
  18.9708980  62.5039470  38.7175170  35.6386660  64.9447160  39.7807460
  36.0095490  64.1614480  39.3743430  36.2788590  65.6336260  39.6024760
  32.6220420  66.3283740  45.1937780  31.8080260  66.7580900  45.4563570
  33.0294620  66.9402150  44.5806830  34.6845860  64.3831430  32.0938050
  34.9594700  65.2910310  31.9657270  34.4956600  64.3193960  33.0300040
  31.0821470  57.4076280  33.3891680  31.5006350  57.2207260  32.5488340
  30.7757530  56.5555330  33.6994610  34.5811200  62.3200420  37.0867480
  34.2054800  61.5528350  36.6548770  33.8514320  62.7023120  37.5742410
  19.1706960  62.9987560  43.7076530  19.5380000  62.9114960  44.5872550
  18.6017780  62.2354110  43.6083390  33.9710820  61.4671940  46.7207000
  33.7396910  61.2384690  45.8204950  34.2315370  62.3871490  46.6751890
  18.7222960  59.9096650  47.6134950  17.8279010  59.8763410  47.9528660
  19.2620510  60.1083440  48.3786200  32.4098890  56.6928370  49.4986700
  33.2869070  56.7011770  49.8820700  32.4219730  55.9559210  48.8879050
  17.3469110  59.8233920  35.1098520  16.4433190  60.0864120  34.9350180
  17.8309730  60.0945090  34.3298480  33.8562160  60.5457910  40.3874720
  34.3799640  60.0520560  39.7564890  34.4421580  60.6808270  41.1322290
  34.0351880  60.6297780  43.9094270  33.0854590  60.5961320  44.0239260
  34.2164890  61.5397890  43.6744040  19.8896320  58.8799460  33.0192900
  20.5988020  58.4582680  32.5340180  19.1736260  58.9474690  32.3876250
  19.5370480  54.9338790  32.0595550  20.2598610  55.4747730  32.3776770
  19.8095000  54.6602210  31.1837090  33.3462130  59.8031260  36.3267130
  33.8421250  59.5702130  37.1116010  33.1478200  58.9643100  35.9104770
  19.2262670  54.1844980  41.9618170  19.8738860  53.6342360  41.5213330
  19.6464510  54.4388130  42.7833980  34.7749290  58.4392210  38.8604810
  34.6648570  58.2848250  39.7987080  35.5356880  57.9113150  38.6180220
  33.1215010  54.3786340  45.3187810  33.7587230  54.9920480  45.6847000
  33.2689900  54.4147000  44.3737040  35.6639560  56.2700130  32.1010950
  36.5888870  56.1381310  31.8929240  35.6415350  56.3492950  33.0547400
  35.7378050  57.0410790  34.7267660  34.9429550  56.9755910  35.2560570
  35.9421330  57.9761430  34.7153010  18.9794670  54.3400650  44.7043490
  18.6309490  54.7964470  45.4701670  18.6482370  53.4457780  44.7865920
  26.4919490  55.5312530  48.2262910  26.4308380  56.1234360  48.9758320
  27.4319870  55.4238490  48.0813170  29.1294050  55.1882590  47.8655200
  29.7434460  55.5061880  47.2036280  29.6743610  54.7031180  48.4851060
  19.6515310  53.8676850  47.9794260  20.1998300  53.6864900  47.2160370
  19.7170620  53.0770960  48.5150570  29.8702090  53.7514730  44.1924490
  28.9961930  54.0849840  43.9897420  29.7612840  53.2787910  45.0176360
  30.7774070  55.9585600  45.5766210  30.4487430  55.1437360  45.1967940
  31.7256370  55.9155410  45.4531900  27.6176910  54.6684570  43.1317400
  26.8348700  55.1430070  43.4114160  27.3239840  53.7639400  43.0230580
  32.1697980  55.3707670  41.1766490  32.6106070  55.3152770  40.3288090
  31.9005570  56.2865680  41.2476670  34.0336550  55.0022910  39.1875310
  33.9724950  54.0584130  39.0406330  34.8128580  55.1103000  39.7328770
  18.9617320  54.9732050  35.6531120  19.7196680  55.0860930  35.0795150
  18.4994490  55.8101250  35.6074550  25.5031130  57.0871320  38.6433430
  24.6905640  56.7128210  38.3029310  26.0072770  56.3316400  38.9454620
  30.0056110  53.7513770  39.8816500  30.6085480  54.3233980  40.3565020
  29.2649100  54.3153210  39.6590400  33.1490710  54.1535330  35.1556780
  33.3441340  55.0518780  35.4224210  32.3620580  53.9222410  35.6489730
  21.3342470  55.4996100  34.1933090  21.8635230  54.7125900  34.0641040
  21.9670790  56.1787290  34.4268620  23.5280310  55.2371240  37.2478480
  22.8983050  54.5358550  37.4148610  22.9885450  55.9975370  37.0311640
  23.6535870  54.5155220  49.6830970  23.3720140  55.0188820  48.9191790
  24.0355570  53.7176970  49.3173100  30.2551330  53.9308800  50.2611440
  30.1416780  54.2503410  51.1562960  31.0721070  54.3321310  49.9648720
  29.1609480  61.9501270  20.6246180  29.0803530  61.0355880  20.3537890
  28.7473900  62.4468340  19.9185890  27.2927520  63.7280290  22.5055450
  26.5169620  63.2480730  22.7954020  27.9440450  63.0485940  22.3311610
  21.3093350  64.0400100  23.3831210  20.4778230  63.7848810  23.7827720
  21.9174330  64.1110870  24.1189130  19.7185300  59.0001990  17.1673600
  18.8302000  59.3417960  17.0653480  20.0026490  58.8002310  16.2754430
  17.6818310  61.6007640  23.0513300  18.2534420  60.8329840  23.0516940
  17.6819850  61.8996400  22.1419910  26.7336510  66.4037480  22.5125610
  26.6644790  65.4627420  22.3514740  27.4956370  66.4938890  23.0848180
  18.9243180  57.0092000  24.8382230  18.7446020  56.1117750  25.1184990
  18.5223260  57.5563870  25.5129180  27.7641680  59.2107860  22.7394540
  28.1406500  58.3379740  22.6268210  27.6661190  59.5466560  21.8484980
  21.8946690  57.5833490  18.2011980  22.0013440  58.4837220  18.5080740
  20.9839050  57.5351460  17.9106630  31.5465800  56.7058300  19.6722880
  32.3675420  56.2154870  19.7148360  31.5799880  57.2955960  20.4254720
  19.5429850  59.5052500  23.4464570  20.2239960  59.7690870  24.0651970
  19.2277900  58.6653370  23.7802580  23.7354420  60.5519860  22.5337160
  24.2432640  61.0500830  23.1742180  24.2667660  59.7755060  22.3576520
  35.8365350  58.7225050  26.2366510  35.1317520  59.1106760  25.7181620
  36.1023270  59.4175340  26.8387440  22.0190520  55.1918420  26.8000580
  22.0208960  55.7090810  25.9946480  21.1894830  54.7148600  26.7770510
  28.4061610  65.3037730  18.2990480  27.7878880  65.7687180  17.7353200
  28.9184860  65.9965210  18.7159990  23.2693370  64.8313600  24.9774080
  22.9362750  65.4582520  25.6195150  23.4460050  65.3575480  24.1975750
  31.7827280  58.6458680  22.4450420  31.0782850  58.9343570  23.0253530
  32.1439440  59.4558790  22.0849980  21.7005850  56.9028380  24.8071030
  22.0422660  57.7470430  24.5124900  20.7621660  57.0512120  24.9236370
  17.7744810  65.9894260  15.6730110  17.3972790  66.4781360  14.9415010
  18.0317880  66.6619540  16.3036640  34.8514200  58.0913470  22.8359630
  33.9039110  58.1252450  22.9675060  35.1764190  58.9052420  23.2208990
  25.3833740  54.3910650  21.1315620  25.6908720  53.8357540  20.4151120
  24.4534440  54.5255110  20.9488610  32.2294220  66.8294160  18.5113250
  32.1190550  65.8868490  18.6362670  32.2262470  67.1909800  19.3976010
  30.3334240  65.0107780  24.7505690  30.7503030  64.7967890  23.9159150
  31.0574060  65.2680570  25.3214310  27.7714500  62.4559480  17.8675740
  26.8443780  62.3896860  18.0964210  27.9239320  63.3939610  17.7530980
  27.7583580  58.7276480  14.8642900  26.8187250  58.8890440  14.9495360
  28.0766840  59.4462160  14.3178890  34.2796340  63.4095000  24.8421930
  33.4514970  63.4788090  24.3672060  34.8746820  63.9949310  24.3737760
  31.8011790  64.0179780  18.3710990  31.1824210  63.6799330  17.7237290
  31.7836240  63.3739540  19.0790180  31.2438350  60.1964320  25.7876800
  30.8309530  61.0218030  26.0416790  30.5114300  59.6109360  25.5953160
  23.3771140  62.9824220  20.6495470  22.9728140  62.2701470  20.1541370
  23.4634260  62.6377460  21.5383510  23.8452840  66.6691780  22.8134680
  23.5481130  66.0637250  22.1342460  24.7952660  66.7069090  22.7024040
  22.0899760  59.7567430  24.4294510  22.6414350  59.8662770  23.6547760
  22.6043270  60.1305030  25.1449740  22.9371270  66.4073470  29.4642480
  22.0399800  66.6313440  29.7115880  22.9624140  66.5308410  28.5153880
  29.9776490  63.2566590  15.3783740  30.4169770  62.4189020  15.2321560
  30.6904910  63.8895990  15.4647880  21.7642490  63.2786790  28.0399850
  21.6250260  64.1509590  28.4087250  20.8823850  62.9359600  27.8947790
  33.5593630  54.5109400  13.6924780  33.2466290  54.6036230  14.5923850
  34.3206100  55.0890430  13.6422210  20.0775770  61.8769200  18.1502120
  19.9573370  62.6031290  17.5383390  19.7676660  61.1072110  17.6730030
  17.7161140  65.0484340  23.9570760  17.7941560  65.1833110  23.0126480
  18.3302820  64.3400230  24.1498880  18.9608770  66.7484530  20.3676940
  18.5536850  66.8899120  19.5130540  19.8521780  66.4644690  20.1648150
  34.9170910  67.1948440  28.7049180  35.0433970  66.9560320  27.7866360
  34.9592290  66.3632980  29.1771260  34.7694920  59.2480900  29.6698920
  34.1539190  59.7560570  29.1414380  34.4491340  58.3479230  29.6124860
  17.7720660  66.0898510  26.4965220  17.9351700  65.6203870  25.6784590
  18.2373110  65.5822070  27.1614060  22.5439430  55.2204270  21.5325790
  22.1007580  56.0013810  21.2010310  23.1024420  55.5434160  22.2396730
  26.8309240  58.0872790  27.1361110  26.3688610  58.2955810  27.9481050
  26.4287350  57.2732140  26.8331780  31.8313750  59.3081740  28.2657770
  30.9807340  59.0087490  28.5866840  31.6715540  59.5523750  27.3541590
  28.9263460  60.8083490  30.3656560  29.2516870  59.9747240  30.0258790
  29.7143790  61.3312010  30.5134890  25.6598250  54.8414970  16.4131620
  25.0352430  54.8374840  17.1384930  25.5728370  53.9745930  16.0167590
  24.5815330  55.7651600  23.3915390  24.8787660  56.6714430  23.3107410
  25.1300890  55.2770380  22.7774960  22.3353650  60.3437840  19.2607040
  22.1094570  60.1275010  20.1653660  21.5546180  60.7766300  18.9153010
  29.5651410  60.3501210  17.8597690  28.9660300  61.0737010  17.6761310
  30.1131020  60.2877990  17.0774140  24.7752860  61.2423420  29.9267310
  24.6796460  60.3018150  29.7767710  25.6184840  61.4638490  29.5315380
  28.1716280  58.9864750  19.8900970  28.5645850  59.3036950  19.0769660
  28.5333130  58.1076630  20.0045490  19.9063400  57.6537090  28.0801090
  19.5126790  58.5012300  28.2873870  19.2181800  57.0163460  28.2709730
  26.4808450  57.7372060  31.1497830  25.7906770  57.5444260  31.7843920
  27.2240750  58.0206700  31.6822130  17.2080450  55.5765550  22.1131170
  16.9193500  56.1468410  22.8256150  17.9526210  55.0970000  22.4762400
  17.3950680  59.5185670  13.3233890  17.3125350  60.4616430  13.4648880
  17.0433740  59.3760580  12.4446240  28.7571420  61.5770500  23.9851750
  28.0252540  62.0857310  24.3341850  28.3595760  60.7600480  23.6840530
  25.1948810  58.2524700  22.3904240  25.1984870  57.8114650  21.5408780
  26.0899930  58.5742030  22.4976060  21.0451190  58.1351190  21.3498450
  20.7051240  58.6126420  22.1065500  20.2828510  57.6816310  20.9899550
  25.2568960  59.2536780  15.3811000  25.3781780  59.2123260  16.3296820
  24.8717470  60.1160930  15.2257730  29.2197330  57.0304180  23.3974690
  29.2370070  57.4812830  24.2416540  28.9712910  56.1309820  23.6108130
  24.2690460  61.5637920  14.7794300  23.7007360  61.1156170  14.1530210
  24.9779460  61.9230700  14.2459450  32.6468080  54.4436360  29.2361070
  32.9713850  53.7126020  29.7619050  32.6824590  54.1250000  28.3342060
  19.3459640  65.4649940  28.6561030  18.9614430  64.8243610  29.2543990
  19.6571830  66.1686060  29.2255760  25.4956780  62.3126480  24.1369650
  25.8626910  61.8385050  24.8830990  25.3061840  63.1868050  24.4777990
  18.3597270  57.0570170  20.2663120  18.0744190  56.6925840  21.1041740
  18.2976130  56.3250630  19.6526260  23.2856150  61.3535120  26.4553860
  22.9813220  62.2327100  26.6804220  24.2402610  61.4134910  26.4911300
  21.8137940  65.5596110  17.0520710  21.0400200  65.0193730  16.8919430
  22.5432570  65.0402720  16.7138470  32.5725920  64.5561470  22.8447100
  33.2925040  65.0516760  22.4543210  32.3707740  63.8779360  22.2000970
  28.0335860  55.9499430  16.9876490  27.2200470  55.4512600  16.9121800
  27.8397810  56.7897680  16.5712840  27.9544720  64.6270530  28.7316100
  27.8882030  63.7066200  28.4773690  27.3249860  64.7245970  29.4460740
  30.7484250  60.3219080  15.2838650  31.6363870  60.6336310  15.1089990
  30.7189340  59.4491330  14.8919230  21.8575340  65.2276490  20.6899520
  22.3754010  64.4244750  20.6356410  21.4059360  65.1655630  21.5316350
  26.7444840  66.4942770  15.9626820  27.0860540  67.2385000  15.4670140
  25.9157550  66.8073890  16.3251650  19.3419880  62.1937860  27.6025220
  18.9834820  62.8591710  28.1898560  19.0474440  61.3621410  27.9737840
  22.5433000  62.6522100  30.4864770  22.2433140  62.7979280  29.5892590
  23.3144240  62.0927390  30.3938160  33.0198520  61.6330920  14.7518510
  32.9362240  62.0645140  13.9014950  33.7392710  62.0929270  15.1845330
  34.0972660  64.0898440  27.8288480  33.3720850  64.6827220  27.6317870
  34.6248120  64.0821980  27.0301850  29.6272250  65.8158610  21.3272330
  29.9796070  65.2186740  20.6673700  28.7434580  65.4902840  21.4980580
  25.7135530  66.5756300  18.7342740  26.4006660  67.1225510  19.1150330
  24.9267950  67.1197030  18.7692350  17.8527930  62.1929120  14.2259820
  18.7222780  62.4753920  14.5095740  17.3618250  63.0064990  14.1108630
  25.0162740  63.5802330  18.3468100  25.4725520  64.3907580  18.5728290
  24.6650950  63.2625470  19.1786590  20.9174520  53.9239980  18.8190620
  20.7889150  53.9157880  19.7675540  20.0936540  54.2623070  18.4681630
  32.4383150  67.3789640  14.0176990  32.2120730  66.6620080  14.6101630
  32.0479350  67.1302080  13.1798740  17.9168450  55.6831100  28.2797320
  17.2026970  55.8828020  28.8849930  18.3363490  54.9070670  28.6512120
  32.0199400  65.2961580  15.6791150  31.7321100  65.7574270  16.4669030
  32.8151570  64.8359350  15.9475370  19.8374440  64.0102590  16.3541880
  19.2302390  64.7501490  16.3637180  20.3123790  64.1001950  15.5280080
  29.4107230  58.1753410  26.0298770  29.7788050  57.3548620  26.3578340
  28.5505430  58.2355300  26.4454420  32.7769260  57.1310350  16.8386330
  32.1482420  57.2356020  16.1244560  32.2821180  57.3507130  17.6280210
  24.7453290  59.4096300  18.2544210  24.0369440  59.8782640  18.6957820
  25.0297770  58.7518310  18.8889400  26.3709220  60.8293000  26.2536740
  26.8694470  61.3038820  26.9188590  26.5132170  59.9056520  26.4606770
  28.7768720  56.1346960  19.6940000  28.6536500  56.1533090  18.7449510
  29.7253280  56.1825900  19.8138400  22.9488310  57.7181380  15.6294920
  23.7978840  58.1551530  15.5635110  22.5819580  58.0301640  16.4566980
  33.5776080  57.0460960  27.0965130  33.0749680  57.7866360  27.4358940
  34.3932740  57.4344960  26.7801920  31.8698090  62.2894140  20.5426490
  30.9288230  62.3044370  20.7174180  32.1842160  61.5030100  20.9886790
  21.8479730  63.9713740  14.1030450  22.6143000  63.8595100  14.6655880
  21.9254420  63.2751710  13.4507220  20.5426490  61.4038810  14.7863340
  20.6230080  60.4566320  14.8980740  21.4346240  61.7345690  14.8924000
  29.1864110  66.8460140  31.0258870  28.5802270  66.8691740  30.2854620
  28.8818220  66.1143180  31.5626120  18.0697290  63.2253730  30.0219510
  18.5736310  62.6461010  30.5935740  17.3304710  63.5093960  30.5595880
  24.9720910  65.9467920  13.5765800  24.8671550  65.3320270  14.3027180
  24.8045130  65.4233810  12.7928810  25.1235230  64.6324720  29.5555030
  24.3580900  65.2009720  29.4709700  25.3051190  64.3400930  28.6623260
  28.2123640  65.0087950  14.1807790  27.6633740  65.4557250  14.8250530
  28.8342900  64.5037200  14.7045460  32.2658580  66.3630050  30.1130050
  33.0068050  66.7005810  29.6097510  31.5031260  66.5322110  29.5599820
  20.1020370  61.3683320  30.9169580  20.1425710  61.0697190  31.8254810
  20.9565870  61.7690930  30.7577100  23.8798760  63.9678870  16.0773090
  24.3015180  63.8018740  16.9204480  24.0049600  63.1579100  15.5828230
  22.0426180  59.9475420  28.8844070  21.5122640  59.4566370  28.2567410
  22.7114250  60.3759620  28.3502000  26.3926400  62.9916480  13.3250190
  26.9132060  62.2765500  12.9591340  27.0394800  63.6302350  13.6250700
  30.9404240  64.4144880  28.6485260  31.3545260  64.5689960  29.4975680
  30.0055240  64.5400100  28.8111040  31.4126410  61.7541040  30.6524410
  31.9947180  60.9993360  30.5644890  31.5888180  62.2848480  29.8755890
  22.5298480  56.9137790  28.9641360  22.4355350  56.2958540  28.2392230
  21.9495870  57.6404080  28.7371270  25.2959920  55.4711030  25.9968750
  24.8477220  55.4935290  25.1514300  24.6625120  55.0730050  26.5939050
  25.7019470  64.3665360  26.6181190  26.1207580  65.2098090  26.4457430
  24.7828100  64.5037400  26.3887970  28.0383370  62.0981540  28.0019030
  28.1579580  61.5022680  28.7413870  28.8977370  62.1351230  27.5820330
  30.3771270  62.6518730  26.5781540  29.8506490  63.1761350  25.9746680
  30.7202610  63.2846120  27.2091270  22.7757660  60.0412100  13.0231250
  22.5746720  59.1779460  13.3844590  22.6049710  59.9545460  12.0852850
  24.8052140  58.6402890  29.2594850  25.3951830  58.3318740  29.9472670
  23.9872380  58.1682640  29.4154750  29.6245570  58.2568700  29.4927870
  28.9361090  57.5950240  29.4277860  30.3451590  57.8106970  29.9376330
  30.2545970  54.8520330  15.5518130  30.5348260  54.0088230  15.9077550
  29.4811700  55.0843440  16.0656880  21.5740460  57.1412720  13.0109130
  21.8766360  57.1480150  12.1028280  22.3135050  56.7910580  13.5076790
  24.7925390  56.0847340  13.9965330  24.4447390  55.4071330  13.4167780
  24.9938160  55.6236850  14.8108720  20.5970590  66.4455140  13.8438930
  21.0345460  66.9884810  14.4996510  21.0818320  65.6202090  13.8535270
  34.6326690  64.0897060  16.1622040  35.3945600  64.6593710  16.2681730
  34.6481060  63.5224260  16.9330350  18.1331030  62.6134990  20.3929700
  17.4779870  62.3446630  19.7489400  18.9708980  62.5039470  19.9431680
  35.6386660  64.9447160  21.0063970  36.0095490  64.1614480  20.5999940
  36.2788590  65.6336260  20.8281270  32.6220420  66.3283740  26.4194290
  31.8080260  66.7580900  26.6820080  33.0294620  66.9402150  25.8063340
  34.6845860  64.3831430  13.3194560  34.9594700  65.2910310  13.1913780
  34.4956600  64.3193960  14.2556550  31.0821470  57.4076280  14.6148190
  31.5006350  57.2207260  13.7744850  30.7757530  56.5555330  14.9251120
  34.5811200  62.3200420  18.3123990  34.2054800  61.5528350  17.8805280
  33.8514320  62.7023120  18.7998920  19.1706960  62.9987560  24.9333040
  19.5380000  62.9114960  25.8129060  18.6017780  62.2354110  24.8339900
  33.9710820  61.4671940  27.9463510  33.7396910  61.2384690  27.0461460
  34.2315370  62.3871490  27.9008400  18.7222960  59.9096650  28.8391460
  17.8279010  59.8763410  29.1785170  19.2620510  60.1083440  29.6042710
  32.4098890  56.6928370  30.7243210  33.2869070  56.7011770  31.1077210
  32.4219730  55.9559210  30.1135560  17.3469110  59.8233920  16.3355030
  16.4433190  60.0864120  16.1606690  17.8309730  60.0945090  15.5554990
  33.8562160  60.5457910  21.6131230  34.3799640  60.0520560  20.9821400
  34.4421580  60.6808270  22.3578800  34.0351880  60.6297780  25.1350780
  33.0854590  60.5961320  25.2495770  34.2164890  61.5397890  24.9000550
  19.8896320  58.8799460  14.2449410  20.5988020  58.4582680  13.7596690
  19.1736260  58.9474690  13.6132760  19.5370480  54.9338790  13.2852060
  20.2598610  55.4747730  13.6033280  19.8095000  54.6602210  12.4093600
  33.3462130  59.8031260  17.5523640  33.8421250  59.5702130  18.3372520
  33.1478200  58.9643100  17.1361280  19.2262670  54.1844980  23.1874680
  19.8738860  53.6342360  22.7469840  19.6464510  54.4388130  24.0090490
  34.7749290  58.4392210  20.0861320  34.6648570  58.2848250  21.0243590
  35.5356880  57.9113150  19.8436730  33.1215010  54.3786340  26.5444320
  33.7587230  54.9920480  26.9103510  33.2689900  54.4147000  25.5993550
  35.6639560  56.2700130  13.3267460  36.5888870  56.1381310  13.1185750
  35.6415350  56.3492950  14.2803910  35.7378050  57.0410790  15.9524170
  34.9429550  56.9755910  16.4817080  35.9421330  57.9761430  15.9409520
  18.9794670  54.3400650  25.9300000  18.6309490  54.7964470  26.6958180
  18.6482370  53.4457780  26.0122430  26.4919490  55.5312530  29.4519420
  26.4308380  56.1234360  30.2014830  27.4319870  55.4238490  29.3069680
  29.1294050  55.1882590  29.0911710  29.7434460  55.5061880  28.4292790
  29.6743610  54.7031180  29.7107570  19.6515310  53.8676850  29.2050770
  20.1998300  53.6864900  28.4416880  19.7170620  53.0770960  29.7407080
  29.8702090  53.7514730  25.4181000  28.9961930  54.0849840  25.2153930
  29.7612840  53.2787910  26.2432870  30.7774070  55.9585600  26.8022720
  30.4487430  55.1437360  26.4224450  31.7256370  55.9155410  26.6788410
  27.6176910  54.6684570  24.3573910  26.8348700  55.1430070  24.6370670
  27.3239840  53.7639400  24.2487090  32.1697980  55.3707670  22.4023000
  32.6106070  55.3152770  21.5544600  31.9005570  56.2865680  22.4733180
  34.0336550  55.0022910  20.4131820  33.9724950  54.0584130  20.2662840
  34.8128580  55.1103000  20.9585280  18.9617320  54.9732050  16.8787630
  19.7196680  55.0860930  16.3051660  18.4994490  55.8101250  16.8331060
  25.5031130  57.0871320  19.8689940  24.6905640  56.7128210  19.5285820
  26.0072770  56.3316400  20.1711130  30.0056110  53.7513770  21.1073010
  30.6085480  54.3233980  21.5821530  29.2649100  54.3153210  20.8846910
  33.1490710  54.1535330  16.3813290  33.3441340  55.0518780  16.6480720
  32.3620580  53.9222410  16.8746240  21.3342470  55.4996100  15.4189600
  21.8635230  54.7125900  15.2897550  21.9670790  56.1787290  15.6525130
  23.5280310  55.2371240  18.4734990  22.8983050  54.5358550  18.6405120
  22.9885450  55.9975370  18.2568150  23.6535870  54.5155220  30.9087480
  23.3720140  55.0188820  30.1448300  24.0355570  53.7176970  30.5429610
  30.2551330  53.9308800  31.4867950  30.1416780  54.2503410  32.3819470
  31.0721070  54.3321310  31.1905230  27.2927520  63.7280290   3.7311960
  26.5169620  63.2480730   4.0210530  27.9440450  63.0485940   3.5568120
  21.3093350  64.0400100   4.6087720  20.4778230  63.7848810   5.0084230
  21.9174330  64.1110870   5.3445640  17.6818310  61.6007640   4.2769810
  18.2534420  60.8329840   4.2773450  17.6819850  61.8996400   3.3676420
  26.7336510  66.4037480   3.7382120  26.6644790  65.4627420   3.5771250
  27.4956370  66.4938890   4.3104690  18.9243180  57.0092000   6.0638740
  18.7446020  56.1117750   6.3441500  18.5223260  57.5563870   6.7385690
  27.7641680  59.2107860   3.9651050  28.1406500  58.3379740   3.8524720
  27.6661190  59.5466560   3.0741490  19.5429850  59.5052500   4.6721080
  20.2239960  59.7690870   5.2908480  19.2277900  58.6653370   5.0059090
  23.7354420  60.5519860   3.7593670  24.2432640  61.0500830   4.3998690
  24.2667660  59.7755060   3.5833030  35.8365350  58.7225050   7.4623020
  35.1317520  59.1106760   6.9438130  36.1023270  59.4175340   8.0643950
  22.0190520  55.1918420   8.0257090  22.0208960  55.7090810   7.2202990
  21.1894830  54.7148600   8.0027020  23.2693370  64.8313600   6.2030590
  22.9362750  65.4582520   6.8451660  23.4460050  65.3575480   5.4232260
  31.7827280  58.6458680   3.6706930  31.0782850  58.9343570   4.2510040
  32.1439440  59.4558790   3.3106490  21.7005850  56.9028380   6.0327540
  22.0422660  57.7470430   5.7381410  20.7621660  57.0512120   6.1492880
  34.8514200  58.0913470   4.0616140  33.9039110  58.1252450   4.1931570
  35.1764190  58.9052420   4.4465500  30.3334240  65.0107780   5.9762200
  30.7503030  64.7967890   5.1415660  31.0574060  65.2680570   6.5470820
  34.2796340  63.4095000   6.0678440  33.4514970  63.4788090   5.5928570
  34.8746820  63.9949310   5.5994270  31.2438350  60.1964320   7.0133310
  30.8309530  61.0218030   7.2673300  30.5114300  59.6109360   6.8209670
  23.8452840  66.6691780   4.0391190  23.5481130  66.0637250   3.3598970
  24.7952660  66.7069090   3.9280550  22.0899760  59.7567430   5.6551020
  22.6414350  59.8662770   4.8804270  22.6043270  60.1305030   6.3706250
  22.9371270  66.4073470  10.6898990  22.0399800  66.6313440  10.9372390
  22.9624140  66.5308410   9.7410390  21.7642490  63.2786790   9.2656360
  21.6250260  64.1509590   9.6343760  20.8823850  62.9359600   9.1204300
  17.7161140  65.0484340   5.1827270  17.7941560  65.1833110   4.2382990
  18.3302820  64.3400230   5.3755390  34.9170910  67.1948440   9.9305690
  35.0433970  66.9560320   9.0122870  34.9592290  66.3632980  10.4027770
  34.7694920  59.2480900  10.8955430  34.1539190  59.7560570  10.3670890
  34.4491340  58.3479230  10.8381370  17.7720660  66.0898510   7.7221730
  17.9351700  65.6203870   6.9041100  18.2373110  65.5822070   8.3870570
  22.5439430  55.2204270   2.7582300  22.1007580  56.0013810   2.4266820
  23.1024420  55.5434160   3.4653240  26.8309240  58.0872790   8.3617620
  26.3688610  58.2955810   9.1737560  26.4287350  57.2732140   8.0588290
  31.8313750  59.3081740   9.4914280  30.9807340  59.0087490   9.8123350
  31.6715540  59.5523750   8.5798100  28.9263460  60.8083490  11.5913070
  29.2516870  59.9747240  11.2515300  29.7143790  61.3312010  11.7391400
  24.5815330  55.7651600   4.6171900  24.8787660  56.6714430   4.5363920
  25.1300890  55.2770380   4.0031470  24.7752860  61.2423420  11.1523820
  24.6796460  60.3018150  11.0024220  25.6184840  61.4638490  10.7571890
  19.9063400  57.6537090   9.3057600  19.5126790  58.5012300   9.5130380
  19.2181800  57.0163460   9.4966240  26.4808450  57.7372060  12.3754340
  25.7906770  57.5444260  13.0100430  27.2240750  58.0206700  12.9078640
  17.2080450  55.5765550   3.3387680  16.9193500  56.1468410   4.0512660
  17.9526210  55.0970000   3.7018910  28.7571420  61.5770500   5.2108260
  28.0252540  62.0857310   5.5598360  28.3595760  60.7600480   4.9097040
  25.1948810  58.2524700   3.6160750  25.1984870  57.8114650   2.7665290
  26.0899930  58.5742030   3.7232570  21.0451190  58.1351190   2.5754960
  20.7051240  58.6126420   3.3322010  20.2828510  57.6816310   2.2156060
  29.2197330  57.0304180   4.6231200  29.2370070  57.4812830   5.4673050
  28.9712910  56.1309820   4.8364640  32.6468080  54.4436360  10.4617580
  32.9713850  53.7126020  10.9875560  32.6824590  54.1250000   9.5598570
  19.3459640  65.4649940   9.8817540  18.9614430  64.8243610  10.4800500
  19.6571830  66.1686060  10.4512270  25.4956780  62.3126480   5.3626160
  25.8626910  61.8385050   6.1087500  25.3061840  63.1868050   5.7034500
  23.2856150  61.3535120   7.6810370  22.9813220  62.2327100   7.9060730
  24.2402610  61.4134910   7.7167810  32.5725920  64.5561470   4.0703610
  33.2925040  65.0516760   3.6799720  32.3707740  63.8779360   3.4257480
  27.9544720  64.6270530   9.9572610  27.8882030  63.7066200   9.7030200
  27.3249860  64.7245970  10.6717250  21.8575340  65.2276490   1.9156030
  22.3754010  64.4244750   1.8612920  21.4059360  65.1655630   2.7572860
  19.3419880  62.1937860   8.8281730  18.9834820  62.8591710   9.4155070
  19.0474440  61.3621410   9.1994350  22.5433000  62.6522100  11.7121280
  22.2433140  62.7979280  10.8149100  23.3144240  62.0927390  11.6194670
  34.0972660  64.0898440   9.0544990  33.3720850  64.6827220   8.8574380
  34.6248120  64.0821980   8.2558360  29.6272250  65.8158610   2.5528840
  29.9796070  65.2186740   1.8930210  28.7434580  65.4902840   2.7237090
  17.9168450  55.6831100   9.5053830  17.2026970  55.8828020  10.1106440
  18.3363490  54.9070670   9.8768630  29.4107230  58.1753410   7.2555280
  29.7788050  57.3548620   7.5834850  28.5505430  58.2355300   7.6710930
  26.3709220  60.8293000   7.4793250  26.8694470  61.3038820   8.1445100
  26.5132170  59.9056520   7.6863280  33.5776080  57.0460960   8.3221640
  33.0749680  57.7866360   8.6615450  34.3932740  57.4344960   8.0058430
  31.8698090  62.2894140   1.7683000  30.9288230  62.3044370   1.9430690
  32.1842160  61.5030100   2.2143300  29.1864110  66.8460140  12.2515380
  28.5802270  66.8691740  11.5111130  28.8818220  66.1143180  12.7882630
  18.0697290  63.2253730  11.2476020  18.5736310  62.6461010  11.8192250
  17.3304710  63.5093960  11.7852390  25.1235230  64.6324720  10.7811540
  24.3580900  65.2009720  10.6966210  25.3051190  64.3400930   9.8879770
  32.2658580  66.3630050  11.3386560  33.0068050  66.7005810  10.8354020
  31.5031260  66.5322110  10.7856330  20.1020370  61.3683320  12.1426090
  20.1425710  61.0697190  13.0511320  20.9565870  61.7690930  11.9833610
  22.0426180  59.9475420  10.1100580  21.5122640  59.4566370   9.4823920
  22.7114250  60.3759620   9.5758510  30.9404240  64.4144880   9.8741770
  31.3545260  64.5689960  10.7232190  30.0055240  64.5400100  10.0367550
  31.4126410  61.7541040  11.8780920  31.9947180  60.9993360  11.7901400
  31.5888180  62.2848480  11.1012400  22.5298480  56.9137790  10.1897870
  22.4355350  56.2958540   9.4648740  21.9495870  57.6404080   9.9627780
  25.2959920  55.4711030   7.2225260  24.8477220  55.4935290   6.3770810
  24.6625120  55.0730050   7.8195560  25.7019470  64.3665360   7.8437700
  26.1207580  65.2098090   7.6713940  24.7828100  64.5037400   7.6144480
  28.0383370  62.0981540   9.2275540  28.1579580  61.5022680   9.9670380
  28.8977370  62.1351230   8.8076840  30.3771270  62.6518730   7.8038050
  29.8506490  63.1761350   7.2003190  30.7202610  63.2846120   8.4347780
  24.8052140  58.6402890  10.4851360  25.3951830  58.3318740  11.1729180
  23.9872380  58.1682640  10.6411260  29.6245570  58.2568700  10.7184380
  28.9361090  57.5950240  10.6534370  30.3451590  57.8106970  11.1632840
  35.6386660  64.9447160   2.2320480  36.0095490  64.1614480   1.8256450
  36.2788590  65.6336260   2.0537780  32.6220420  66.3283740   7.6450800
  31.8080260  66.7580900   7.9076590  33.0294620  66.9402150   7.0319850
  19.1706960  62.9987560   6.1589550  19.5380000  62.9114960   7.0385570
  18.6017780  62.2354110   6.0596410  33.9710820  61.4671940   9.1720020
  33.7396910  61.2384690   8.2717970  34.2315370  62.3871490   9.1264910
  18.7222960  59.9096650  10.0647970  17.8279010  59.8763410  10.4041680
  19.2620510  60.1083440  10.8299220  32.4098890  56.6928370  11.9499720
  33.2869070  56.7011770  12.3333720  32.4219730  55.9559210  11.3392070
  33.8562160  60.5457910   2.8387740  34.3799640  60.0520560   2.2077910
  34.4421580  60.6808270   3.5835310  34.0351880  60.6297780   6.3607290
  33.0854590  60.5961320   6.4752280  34.2164890  61.5397890   6.1257060
  19.2262670  54.1844980   4.4131190  19.8738860  53.6342360   3.9726350
  19.6464510  54.4388130   5.2347000  33.1215010  54.3786340   7.7700830
  33.7587230  54.9920480   8.1360020  33.2689900  54.4147000   6.8250060
  18.9794670  54.3400650   7.1556510  18.6309490  54.7964470   7.9214690
  18.6482370  53.4457780   7.2378940  26.4919490  55.5312530  10.6775930
  26.4308380  56.1234360  11.4271340  27.4319870  55.4238490  10.5326190
  29.1294050  55.1882590  10.3168220  29.7434460  55.5061880   9.6549300
  29.6743610  54.7031180  10.9364080  19.6515310  53.8676850  10.4307280
  20.1998300  53.6864900   9.6673390  19.7170620  53.0770960  10.9663590
  29.8702090  53.7514730   6.6437510  28.9961930  54.0849840   6.4410440
  29.7612840  53.2787910   7.4689380  30.7774070  55.9585600   8.0279230
  30.4487430  55.1437360   7.6480960  31.7256370  55.9155410   7.9044920
  27.6176910  54.6684570   5.5830420  26.8348700  55.1430070   5.8627180
  27.3239840  53.7639400   5.4743600  32.1697980  55.3707670   3.6279510
  32.6106070  55.3152770   2.7801110  31.9005570  56.2865680   3.6989690
  30.0056110  53.7513770   2.3329520  30.6085480  54.3233980   2.8078040
  29.2649100  54.3153210   2.1103420  23.6535870  54.5155220  12.1343990
  23.3720140  55.0188820  11.3704810  24.0355570  53.7176970  11.7686120
  30.2551330  53.9308800  12.7124460  30.1416780  54.2503410  13.6075980
  31.0721070  54.3321310  12.4161740  29.1609480  43.1757780  58.1733160
  29.0803530  42.2612390  57.9024870  28.7473900  43.6724850  57.4672870
  27.2927520  44.9536800  60.0542430  26.5169620  44.4737240  60.3441000
  27.9440450  44.2742450  59.8798590  31.3134950  49.3596990  58.8341560
  30.8516480  48.5884230  59.1628730  32.1260500  49.3863060  59.3394010
  21.2894610  49.2996700  61.1276210  21.5922650  48.4094440  60.9486430
  22.0338200  49.8566920  60.8998460  19.7185300  40.2258500  54.7160580
  18.8302000  40.5674470  54.6140460  20.0026490  40.0258820  53.8241410
  17.6818310  42.8264150  60.6000280  18.2534420  42.0586350  60.6003920
  17.6819850  43.1252910  59.6906890  27.5398260  51.6455000  58.4545550
  26.9209700  52.1012500  57.8839990  28.3950040  51.8006460  58.0535250
  26.7336510  47.6293990  60.0612590  26.6644790  46.6883930  59.9001720
  27.4956370  47.7195400  60.6335160  27.7641680  40.4364370  60.2881520
  28.1406500  39.5636250  60.1755190  27.6661190  40.7723070  59.3971960
  21.8946690  38.8090000  55.7498960  22.0013440  39.7093730  56.0567720
  20.9839050  38.7607970  55.4593610  31.5465800  37.9314810  57.2209860
  32.3675420  37.4411380  57.2635340  31.5799880  38.5212470  57.9741700
  23.7354420  41.7776370  60.0824140  24.2432640  42.2757340  60.7229160
  24.2667660  41.0011570  59.9063500  28.4061610  46.5294240  55.8477460
  27.7878880  46.9943690  55.2840180  28.9184860  47.2221720  56.2646970
  31.7827280  39.8715190  59.9937400  31.0782850  40.1600080  60.5740510
  32.1439440  40.6815300  59.6336960  17.7744810  47.2150770  53.2217090
  17.3972790  47.7037870  52.4901990  18.0317880  47.8876050  53.8523620
  34.8514200  39.3169980  60.3846610  33.9039110  39.3508960  60.5162040
  35.1764190  40.1308930  60.7695970  25.3833740  35.6167160  58.6802600
  25.6908720  35.0614050  57.9638100  24.4534440  35.7511620  58.4975590
  30.9348800  51.3334450  60.9710060  30.9475960  50.9296740  60.1032320
  30.3824020  52.1081740  60.8671490  32.2294220  48.0550670  56.0600230
  32.1190550  47.1125000  56.1849650  32.2262470  48.4166310  56.9462990
  27.7714500  43.6815990  55.4162720  26.8443780  43.6153370  55.6451190
  27.9239320  44.6196120  55.3017960  27.7583580  39.9532990  52.4129880
  26.8187250  40.1146950  52.4982340  28.0766840  40.6718670  51.8665870
  31.8011790  45.2436290  55.9197970  31.1824210  44.9055840  55.2724270
  31.7836240  44.5996050  56.6277160  23.3771140  44.2080730  58.1982450
  22.9728140  43.4957980  57.7028350  23.4634260  43.8633970  59.0870490
  23.8452840  47.8948290  60.3621660  23.5481130  47.2893760  59.6829440
  24.7952660  47.9325600  60.2511020  29.9776490  44.4823100  52.9270720
  30.4169770  43.6445530  52.7808540  30.6904910  45.1152500  53.0134860
  28.0871870  49.4219170  56.8951960  28.5267780  50.1643500  56.4807350
  28.0258760  49.6645740  57.8190920  33.5593630  35.7365910  51.2411760
  33.2466290  35.8292740  52.1410830  34.3206100  36.3146940  51.1909190
  20.0775770  43.1025710  55.6989100  19.9573370  43.8287800  55.0870370
  19.7676660  42.3328620  55.2217010  18.9608770  47.9741040  57.9163920
  18.5536850  48.1155630  57.0617520  19.8521780  47.6901200  57.7135130
  30.7542050  52.4088290  54.2514970  30.5943190  52.1191230  55.1496800
  30.5888760  51.6328420  53.7160200  23.2330430  52.1886820  56.0286590
  23.0572910  51.2722360  55.8154390  22.3786170  52.5474110  56.2684390
  30.4568180  49.9175850  52.8112970  29.7633340  49.9153140  52.1515250
  31.1991040  49.4935170  52.3807140  30.0218110  51.5438560  56.8861460
  30.4775060  50.7627940  57.2000080  30.3610630  52.2545380  57.4302640
  22.5439430  36.4460780  59.0812770  22.1007580  37.2270320  58.7497290
  23.1024420  36.7690670  59.7883710  25.6598250  36.0671480  53.9618600
  25.0352430  36.0631350  54.6871910  25.5728370  35.2002440  53.5654570
  24.5815330  36.9908110  60.9402370  24.8787660  37.8970940  60.8594390
  25.1300890  36.5026890  60.3261940  22.3353650  41.5694350  56.8094020
  22.1094570  41.3531520  57.7140640  21.5546180  42.0022810  56.4639990
  29.5651410  41.5757720  55.4084670  28.9660300  42.2993520  55.2248290
  30.1131020  41.5134500  54.6261120  28.1716280  40.2121260  57.4387950
  28.5645850  40.5293460  56.6256640  28.5333130  39.3333140  57.5532470
  17.2080450  36.8022060  59.6618150  16.9193500  37.3724920  60.3743130
  17.9526210  36.3226510  60.0249380  17.3950680  40.7442180  50.8720870
  17.3125350  41.6872940  51.0135860  17.0433740  40.6017090  49.9933220
  25.1948810  39.4781210  59.9391220  25.1984870  39.0371160  59.0895760
  26.0899930  39.7998540  60.0463040  21.0451190  39.3607700  58.8985430
  20.7051240  39.8382930  59.6552480  20.2828510  38.9072820  58.5386530
  25.2568960  40.4793290  52.9297980  25.3781780  40.4379770  53.8783800
  24.8717470  41.3417440  52.7744710  24.2690460  42.7894430  52.3281280
  23.7007360  42.3412680  51.7017190  24.9779460  43.1487210  51.7946430
  18.3597270  38.2826680  57.8150100  18.0744190  37.9182350  58.6528720
  18.2976130  37.5507140  57.2013240  21.8137940  46.7852620  54.6007690
  21.0400200  46.2450240  54.4406410  22.5432570  46.2659230  54.2625450
  32.5725920  45.7817980  60.3934080  33.2925040  46.2773270  60.0030190
  32.3707740  45.1035870  59.7487950  28.0335860  37.1755940  54.5363470
  27.2200470  36.6769110  54.4608780  27.8397810  38.0154190  54.1199820
  30.7484250  41.5475590  52.8325630  31.6363870  41.8592820  52.6576970
  30.7189340  40.6747840  52.4406210  21.8575340  46.4533000  58.2386500
  22.3754010  45.6501260  58.1843390  21.4059360  46.3912140  59.0803330
  26.7444840  47.7199280  53.5113800  27.0860540  48.4641510  53.0157120
  25.9157550  48.0330400  53.8738630  33.0198520  42.8587430  52.3005490
  32.9362240  43.2901650  51.4501930  33.7392710  43.3185780  52.7332310
  34.0485770  49.7129690  55.0287620  33.4061930  49.0585310  55.3031340
  33.6616430  50.1184780  54.2528290  29.6272250  47.0415120  58.8759310
  29.9796070  46.4443250  58.2160680  28.7434580  46.7159350  59.0467560
  25.7135530  47.8012810  56.2829720  26.4006660  48.3482020  56.6637310
  24.9267950  48.3453540  56.3179330  17.8527930  43.4185630  51.7746800
  18.7222780  43.7010430  52.0582720  17.3618250  44.2321500  51.6595610
  25.0162740  44.8058840  55.8955080  25.4725520  45.6164090  56.1215270
  24.6650950  44.4881980  56.7273570  20.9174520  35.1496490  56.3677600
  20.7889150  35.1414390  57.3162520  20.0936540  35.4879580  56.0168610
  32.4383150  48.6046150  51.5663970  32.2120730  47.8876590  52.1588610
  32.0479350  48.3558590  50.7285720  18.2199180  52.6313010  52.3408430
  18.5796820  53.2302350  51.6865700  18.0791520  53.1772900  53.1143460
  32.0199400  46.5218090  53.2278130  31.7321100  46.9830780  54.0156010
  32.8151570  46.0615860  53.4962350  24.2367800  50.0144210  53.1582100
  24.2277900  50.7473900  52.5426610  23.3166160  49.7675790  53.2509060
  19.8374440  45.2359100  53.9028860  19.2302390  45.9758000  53.9124160
  20.3123790  45.3258460  53.0767060  32.7769260  38.3566860  54.3873310
  32.1482420  38.4612530  53.6731540  32.2821180  38.5763640  55.1767190
  27.2227400  50.0772450  51.8207290  27.3239380  49.8736440  50.8909270
  26.3229140  49.8230730  52.0255070  24.7453290  40.6352810  55.8031190
  24.0369440  41.1039150  56.2444800  25.0297770  39.9774820  56.4376380
  28.7768720  37.3603470  57.2426980  28.6536500  37.3789600  56.2936490
  29.7253280  37.4082410  57.3625380  25.8645510  52.5958770  56.5154960
  26.1187010  52.5580160  55.5934330  24.9157990  52.4692100  56.5083210
  22.9488310  38.9437890  53.1781900  23.7978840  39.3808040  53.1122090
  22.5819580  39.2558150  54.0053960  31.8698090  43.5150650  58.0913470
  30.9288230  43.5300880  58.2661160  32.1842160  42.7286610  58.5373770
  21.8479730  45.1970250  51.6517430  22.6143000  45.0851610  52.2142860
  21.9254420  44.5008220  50.9994200  20.5426490  42.6295320  52.3350320
  20.6230080  41.6822830  52.4467720  21.4346240  42.9602200  52.4410980
  33.8723670  50.6859500  59.7667730  33.9971090  51.5090670  60.2391540
  34.7389230  50.4750230  59.4191880  21.3441200  52.7790710  59.4384860
  22.0803680  52.2306170  59.7093430  21.7282120  53.6446720  59.2990850
  18.2286680  48.8464280  55.3126370  17.3026460  49.0885420  55.3031780
  18.6943110  49.6738540  55.1911120  24.4543510  51.9521020  51.2610430
  25.2472120  52.2409850  50.8092220  23.9347860  51.5213190  50.5822910
  33.5073680  51.1791150  52.6847170  33.2215190  50.7656290  51.8701350
  33.3093230  52.1078860  52.5647690  24.9720910  47.1724430  51.1252780
  24.8671550  46.5576780  51.8514160  24.8045130  46.6490320  50.3415790
  28.2123640  46.2344460  51.7294770  27.6633740  46.6813760  52.3737510
  28.8342900  45.7293710  52.2532440  23.8798760  45.1935380  53.6260070
  24.3015180  45.0275250  54.4691460  24.0049600  44.3835610  53.1315210
  26.3926400  44.2172990  50.8737170  26.9132060  43.5022010  50.5078320
  27.0394800  44.8558860  51.1737680  22.7757660  41.2668610  50.5718230
  22.5746720  40.4035970  50.9331570  22.6049710  41.1801970  49.6339830
  30.2545970  36.0776840  53.1005110  30.5348260  35.2344740  53.4564530
  29.4811700  36.3099950  53.6143860  21.5740460  38.3669230  50.5596110
  21.8766360  38.3736660  49.6515260  22.3135050  38.0167090  51.0563770
  24.7925390  37.3103850  51.5452310  24.4447390  36.6327840  50.9654760
  24.9938160  36.8493360  52.3595700  26.9574430  52.2984600  53.1638910
  27.8525220  52.6369570  53.1857670  26.9892060  51.5764010  52.5363190
  20.5970590  47.6711650  51.3925910  21.0345460  48.2141320  52.0483490
  21.0818320  46.8458600  51.4022250  17.8116390  50.4600680  58.8446170
  18.1419400  49.5921740  58.6124810  18.2407390  50.6659200  59.6751130
  22.4078310  48.7909690  56.5048140  22.1073850  48.6674660  57.4052050
  22.3015800  47.9318280  56.0963870  35.1770230  48.5706090  51.2074820
  34.3463190  48.6382740  51.6782050  35.3542060  49.4610210  50.9041680
  34.6326690  45.3153570  53.7109020  35.3945600  45.8850220  53.8168710
  34.6481060  44.7480770  54.4817330  18.1331030  43.8391500  57.9416680
  17.4779870  43.5703140  57.2976380  18.9708980  43.7295980  57.4918660
  35.6386660  46.1703670  58.5550950  36.0095490  45.3870990  58.1486920
  36.2788590  46.8592770  58.3768250  34.6845860  45.6087940  50.8681540
  34.9594700  46.5166820  50.7400760  34.4956600  45.5450470  51.8043530
  31.0821470  38.6332790  52.1635170  31.5006350  38.4463770  51.3231830
  30.7757530  37.7811840  52.4738100  34.5811200  43.5456930  55.8610970
  34.2054800  42.7784860  55.4292260  33.8514320  43.9279630  56.3485900
  17.3469110  41.0490430  53.8842010  16.4433190  41.3120630  53.7093670
  17.8309730  41.3201600  53.1041970  33.8562160  41.7714420  59.1618210
  34.3799640  41.2777070  58.5308380  34.4421580  41.9064780  59.9065780
  19.8896320  40.1055970  51.7936390  20.5988020  39.6839190  51.3083670
  19.1736260  40.1731200  51.1619740  19.5370480  36.1595300  50.8339040
  20.2598610  36.7004240  51.1520260  19.8095000  35.8858720  49.9580580
  33.3462130  41.0287770  55.1010620  33.8421250  40.7958640  55.8859500
  33.1478200  40.1899610  54.6848260  34.7749290  39.6648720  57.6348300
  34.6648570  39.5104760  58.5730570  35.5356880  39.1369660  57.3923710
  35.6639560  37.4956640  50.8754440  36.5888870  37.3637820  50.6672730
  35.6415350  37.5749460  51.8290890  35.7378050  38.2667300  53.5011150
  34.9429550  38.2012420  54.0304060  35.9421330  39.2017940  53.4896500
  32.6796470  52.3058850  57.4949540  33.2755540  51.9843420  56.8183960
  32.9374620  51.8330670  58.2862810  33.2308680  52.9554150  61.3247270
  32.7711650  53.7069960  60.9505290  32.6021140  52.2360620  61.2662070
  23.6604400  51.2642390  60.4995400  24.1769420  50.6529750  59.9743660
  24.3101780  51.7671170  60.9906410  32.1697980  36.5964180  59.9509980
  32.6106070  36.5409280  59.1031580  31.9005570  37.5122190  60.0220160
  34.0336550  36.2279420  57.9618800  33.9724950  35.2840640  57.8149820
  34.8128580  36.3359510  58.5072260  18.3389300  52.3671780  56.9242750
  18.1711340  51.7342460  57.6224640  17.4723810  52.5731180  56.5736940
  18.9617320  36.1988560  54.4274610  19.7196680  36.3117440  53.8538640
  18.4994490  37.0357760  54.3818040  25.5031130  38.3127830  57.4176920
  24.6905640  37.9384720  57.0772800  26.0072770  37.5572910  57.7198110
  30.0056110  34.9770280  58.6559990  30.6085480  35.5490490  59.1308510
  29.2649100  35.5409720  58.4333890  33.1490710  35.3791840  53.9300270
  33.3441340  36.2775290  54.1967700  32.3620580  35.1478920  54.4233220
  19.9452000  51.0605010  54.3692890  19.4199620  51.4413040  53.6654850
  19.8696580  51.6855780  55.0902600  21.3342470  36.7252610  52.9676580
  21.8635230  35.9382410  52.8384530  21.9670790  37.4043800  53.2012110
  23.5280310  36.4627750  56.0221970  22.8983050  35.7615060  56.1892100
  22.9885450  37.2231880  55.8055130  34.7017320  52.6192550  55.6906830
  34.8769510  51.9330290  55.0467750  34.0038890  53.1439600  55.2983500
  22.5444970  53.0087390  53.2442140  23.2763790  52.7246670  52.6966030
  22.8038640  52.7700670  54.1341520  21.7059760  49.1252120  53.2488470
  21.0768640  49.5937220  53.7974300  21.8207590  48.2801340  53.6834660
  29.1609480  43.1757780  39.3989670  29.0803530  42.2612390  39.1281380
  28.7473900  43.6724850  38.6929380  27.2927520  44.9536800  41.2798940
  26.5169620  44.4737240  41.5697510  27.9440450  44.2742450  41.1055100
  21.3093350  45.2656610  42.1574700  20.4778230  45.0105320  42.5571210
  21.9174330  45.3367380  42.8932620  31.3134950  49.3596990  40.0598070
  30.8516480  48.5884230  40.3885240  32.1260500  49.3863060  40.5650520
  21.2894610  49.2996700  42.3532720  21.5922650  48.4094440  42.1742940
  22.0338200  49.8566920  42.1254970  19.7185300  40.2258500  35.9417090
  18.8302000  40.5674470  35.8396970  20.0026490  40.0258820  35.0497920
  17.6818310  42.8264150  41.8256790  18.2534420  42.0586350  41.8260430
  17.6819850  43.1252910  40.9163400  27.5398260  51.6455000  39.6802060
  26.9209700  52.1012500  39.1096500  28.3950040  51.8006460  39.2791760
  26.7336510  47.6293990  41.2869100  26.6644790  46.6883930  41.1258230
  27.4956370  47.7195400  41.8591670  18.9243180  38.2348510  43.6125720
  18.7446020  37.3374260  43.8928480  18.5223260  38.7820380  44.2872670
  27.7641680  40.4364370  41.5138030  28.1406500  39.5636250  41.4011700
  27.6661190  40.7723070  40.6228470  21.8946690  38.8090000  36.9755470
  22.0013440  39.7093730  37.2824230  20.9839050  38.7607970  36.6850120
  31.5465800  37.9314810  38.4466370  32.3675420  37.4411380  38.4891850
  31.5799880  38.5212470  39.1998210  19.5429850  40.7309010  42.2208060
  20.2239960  40.9947380  42.8395460  19.2277900  39.8909880  42.5546070
  23.7354420  41.7776370  41.3080650  24.2432640  42.2757340  41.9485670
  24.2667660  41.0011570  41.1320010  35.8365350  39.9481560  45.0110000
  35.1317520  40.3363270  44.4925110  36.1023270  40.6431850  45.6130930
  22.0190520  36.4174930  45.5744070  22.0208960  36.9347320  44.7689970
  21.1894830  35.9405110  45.5514000  28.4061610  46.5294240  37.0733970
  27.7878880  46.9943690  36.5096690  28.9184860  47.2221720  37.4903480
  23.2693370  46.0570110  43.7517570  22.9362750  46.6839030  44.3938640
  23.4460050  46.5831990  42.9719240  31.7827280  39.8715190  41.2193910
  31.0782850  40.1600080  41.7997020  32.1439440  40.6815300  40.8593470
  21.7005850  38.1284890  43.5814520  22.0422660  38.9726940  43.2868390
  20.7621660  38.2768630  43.6979860  22.4812470  48.0250910  45.5666750
  23.0986470  48.7001990  45.2851200  21.6205590  48.4338890  45.4754250
  17.7744810  47.2150770  34.4473600  17.3972790  47.7037870  33.7158500
  18.0317880  47.8876050  35.0780130  33.3990060  49.4890320  43.4821390
  32.7153580  50.1589430  43.4738060  33.9384350  49.6870970  42.7166250
  34.8514200  39.3169980  41.6103120  33.9039110  39.3508960  41.7418550
  35.1764190  40.1308930  41.9952480  25.3833740  35.6167160  39.9059110
  25.6908720  35.0614050  39.1894610  24.4534440  35.7511620  39.7232100
  30.9348800  51.3334450  42.1966570  30.9475960  50.9296740  41.3288830
  30.3824020  52.1081740  42.0928000  32.2294220  48.0550670  37.2856740
  32.1190550  47.1125000  37.4106160  32.2262470  48.4166310  38.1719500
  30.3334240  46.2364290  43.5249180  30.7503030  46.0224400  42.6902640
  31.0574060  46.4937080  44.0957800  27.7714500  43.6815990  36.6419230
  26.8443780  43.6153370  36.8707700  27.9239320  44.6196120  36.5274470
  27.7583580  39.9532990  33.6386390  26.8187250  40.1146950  33.7238850
  28.0766840  40.6718670  33.0922380  34.2796340  44.6351510  43.6165420
  33.4514970  44.7044600  43.1415550  34.8746820  45.2205820  43.1481250
  31.8011790  45.2436290  37.1454480  31.1824210  44.9055840  36.4980780
  31.7836240  44.5996050  37.8533670  31.2438350  41.4220830  44.5620290
  30.8309530  42.2474540  44.8160280  30.5114300  40.8365870  44.3696650
  23.3771140  44.2080730  39.4238960  22.9728140  43.4957980  38.9284860
  23.4634260  43.8633970  40.3127000  23.8452840  47.8948290  41.5878170
  23.5481130  47.2893760  40.9085950  24.7952660  47.9325600  41.4767530
  22.0899760  40.9823940  43.2038000  22.6414350  41.0919280  42.4291250
  22.6043270  41.3561540  43.9193230  31.9338450  51.4680160  45.2501270
  31.4569010  52.2752350  45.0573880  31.2500240  50.8158490  45.4027480
  22.9371270  47.6329980  48.2385970  22.0399800  47.8569950  48.4859370
  22.9624140  47.7564920  47.2897370  29.9776490  44.4823100  34.1527230
  30.4169770  43.6445530  34.0065050  30.6904910  45.1152500  34.2391370
  21.7642490  44.5043300  46.8143340  21.6250260  45.3766100  47.1830740
  20.8823850  44.1616110  46.6691280  28.0871870  49.4219170  38.1208470
  28.5267780  50.1643500  37.7063860  28.0258760  49.6645740  39.0447430
  23.5622840  50.4465000  49.0228490  23.5338270  50.8507950  48.1556920
  23.3987810  49.5175360  48.8600090  20.0775770  43.1025710  36.9245610
  19.9573370  43.8287800  36.3126880  19.7676660  42.3328620  36.4473520
  35.5137660  51.2292100  50.3192660  35.9897380  51.7074990  50.9981740
  36.1344820  51.1609590  49.5938160  17.7161140  46.2740850  42.7314250
  17.7941560  46.4089620  41.7869970  18.3302820  45.5656740  42.9242370
  18.9608770  47.9741040  39.1420430  18.5536850  48.1155630  38.2874030
  19.8521780  47.6901200  38.9391640  34.9170910  48.4204950  47.4792670
  35.0433970  48.1816830  46.5609850  34.9592290  47.5889490  47.9514750
  28.7787650  52.1232950  46.0487480  29.2932320  52.0340960  46.8509910
  27.9356730  52.4692650  46.3415390  30.7542050  52.4088290  35.4771480
  30.5943190  52.1191230  36.3753310  30.5888760  51.6328420  34.9416710
  23.2330430  52.1886820  37.2543100  23.0572910  51.2722360  37.0410900
  22.3786170  52.5474110  37.4940900  30.4568180  49.9175850  34.0369480
  29.7633340  49.9153140  33.3771760  31.1991040  49.4935170  33.6063650
  30.0218110  51.5438560  38.1117970  30.4775060  50.7627940  38.4256590
  30.3610630  52.2545380  38.6559150  34.7694920  40.4737410  48.4442410
  34.1539190  40.9817080  47.9157870  34.4491340  39.5735740  48.3868350
  17.7720660  47.3155020  45.2708710  17.9351700  46.8460380  44.4528080
  18.2373110  46.8078580  45.9357550  22.5439430  36.4460780  40.3069280
  22.1007580  37.2270320  39.9753800  23.1024420  36.7690670  41.0140220
  26.8309240  39.3129300  45.9104600  26.3688610  39.5212320  46.7224540
  26.4287350  38.4988650  45.6075270  31.8313750  40.5338250  47.0401260
  30.9807340  40.2344000  47.3610330  31.6715540  40.7780260  46.1285080
  28.9263460  42.0340000  49.1400050  29.2516870  41.2003750  48.8002280
  29.7143790  42.5568520  49.2878380  25.6598250  36.0671480  35.1875110
  25.0352430  36.0631350  35.9128420  25.5728370  35.2002440  34.7911080
  24.5815330  36.9908110  42.1658880  24.8787660  37.8970940  42.0850900
  25.1300890  36.5026890  41.5518450  22.3353650  41.5694350  38.0350530
  22.1094570  41.3531520  38.9397150  21.5546180  42.0022810  37.6896500
  29.5651410  41.5757720  36.6341180  28.9660300  42.2993520  36.4504800
  30.1131020  41.5134500  35.8517630  24.7752860  42.4679930  48.7010800
  24.6796460  41.5274660  48.5511200  25.6184840  42.6895000  48.3058870
  28.1716280  40.2121260  38.6644460  28.5645850  40.5293460  37.8513150
  28.5333130  39.3333140  38.7788980  19.9063400  38.8793600  46.8544580
  19.5126790  39.7268810  47.0617360  19.2181800  38.2419970  47.0453220
  26.4808450  38.9628570  49.9241320  25.7906770  38.7700770  50.5587410
  27.2240750  39.2463210  50.4565620  17.2080450  36.8022060  40.8874660
  16.9193500  37.3724920  41.5999640  17.9526210  36.3226510  41.2505890
  17.3950680  40.7442180  32.0977380  17.3125350  41.6872940  32.2392370
  17.0433740  40.6017090  31.2189730  28.7571420  42.8027010  42.7595240
  28.0252540  43.3113820  43.1085340  28.3595760  41.9856990  42.4584020
  25.1948810  39.4781210  41.1647730  25.1984870  39.0371160  40.3152270
  26.0899930  39.7998540  41.2719550  21.0451190  39.3607700  40.1241940
  20.7051240  39.8382930  40.8808990  20.2828510  38.9072820  39.7643040
  25.2568960  40.4793290  34.1554490  25.3781780  40.4379770  35.1040310
  24.8717470  41.3417440  34.0001220  29.2197330  38.2560690  42.1718180
  29.2370070  38.7069340  43.0160030  28.9712910  37.3566330  42.3851620
  24.2690460  42.7894430  33.5537790  23.7007360  42.3412680  32.9273700
  24.9779460  43.1487210  33.0202940  32.6468080  35.6692870  48.0104560
  32.9713850  34.9382530  48.5362540  32.6824590  35.3506510  47.1085550
  19.3459640  46.6906450  47.4304520  18.9614430  46.0500120  48.0287480
  19.6571830  47.3942570  47.9999250  25.4956780  43.5382990  42.9113140
  25.8626910  43.0641560  43.6574480  25.3061840  44.4124560  43.2521480
  18.3597270  38.2826680  39.0406610  18.0744190  37.9182350  39.8785230
  18.2976130  37.5507140  38.4269750  23.2856150  42.5791630  45.2297350
  22.9813220  43.4583610  45.4547710  24.2402610  42.6391420  45.2654790
  21.8137940  46.7852620  35.8264200  21.0400200  46.2450240  35.6662920
  22.5432570  46.2659230  35.4881960  32.5725920  45.7817980  41.6190590
  33.2925040  46.2773270  41.2286700  32.3707740  45.1035870  40.9744460
  28.0335860  37.1755940  35.7619980  27.2200470  36.6769110  35.6865290
  27.8397810  38.0154190  35.3456330  27.9544720  45.8527040  47.5059590
  27.8882030  44.9322710  47.2517180  27.3249860  45.9502480  48.2204230
  30.7484250  41.5475590  34.0582140  31.6363870  41.8592820  33.8833480
  30.7189340  40.6747840  33.6662720  21.8575340  46.4533000  39.4643010
  22.3754010  45.6501260  39.4099900  21.4059360  46.3912140  40.3059840
  26.7444840  47.7199280  34.7370310  27.0860540  48.4641510  34.2413630
  25.9157550  48.0330400  35.0995140  19.3419880  43.4194370  46.3768710
  18.9834820  44.0848220  46.9642050  19.0474440  42.5877920  46.7481330
  22.5433000  43.8778610  49.2608260  22.2433140  44.0235790  48.3636080
  23.3144240  43.3183900  49.1681650  27.8861450  48.6747610  47.2563390
  27.9005990  47.7428570  47.0382300  27.1786550  48.7607370  47.8953160
  33.0198520  42.8587430  33.5262000  32.9362240  43.2901650  32.6758440
  33.7392710  43.3185780  33.9588820  34.0972660  45.3154950  46.6031970
  33.3720850  45.9083730  46.4061360  34.6248120  45.3078490  45.8045340
  34.0485770  49.7129690  36.2544130  33.4061930  49.0585310  36.5287850
  33.6616430  50.1184780  35.4784800  29.6272250  47.0415120  40.1015820
  29.9796070  46.4443250  39.4417190  28.7434580  46.7159350  40.2724070
  25.7135530  47.8012810  37.5086230  26.4006660  48.3482020  37.8893820
  24.9267950  48.3453540  37.5435840  17.8527930  43.4185630  33.0003310
  18.7222780  43.7010430  33.2839230  17.3618250  44.2321500  32.8852120
  25.0162740  44.8058840  37.1211590  25.4725520  45.6164090  37.3471780
  24.6650950  44.4881980  37.9530080  27.3195350  50.3165180  44.3503890
  27.9637570  50.5224560  45.0277310  27.6824790  49.5553580  43.8974740
  20.9174520  35.1496490  37.5934110  20.7889150  35.1414390  38.5419030
  20.0936540  35.4879580  37.2425120  28.5927430  48.3197530  43.0681340
  29.2349660  47.6190690  43.1813510  29.1176780  49.0995970  42.8878230
  32.4383150  48.6046150  32.7920480  32.2120730  47.8876590  33.3845120
  32.0479350  48.3558590  31.9542230  30.3665050  49.1192430  46.2717400
  30.7021290  49.7059120  46.9495320  29.4465390  48.9885140  46.5015190
  18.2199180  52.6313010  33.5664940  18.5796820  53.2302350  32.9122210
  18.0791520  53.1772900  34.3399970  17.9168450  36.9087610  47.0540810
  17.2026970  37.1084530  47.6593420  18.3363490  36.1327180  47.4255610
  32.0199400  46.5218090  34.4534640  31.7321100  46.9830780  35.2412520
  32.8151570  46.0615860  34.7218860  18.2041040  50.8967870  48.0407340
  18.3132160  49.9562610  47.9002730  17.5521600  51.1622620  47.3921070
  26.1953630  49.1683760  49.4405460  25.8750500  48.4493000  49.9851150
  25.5211990  49.8438830  49.5141520  24.2367800  50.0144210  34.3838610
  24.2277900  50.7473900  33.7683120  23.3166160  49.7675790  34.4765570
  19.8374440  45.2359100  35.1285370  19.2302390  45.9758000  35.1380670
  20.3123790  45.3258460  34.3023570  29.4107230  39.4009920  44.8042260
  29.7788050  38.5805130  45.1321830  28.5505430  39.4611810  45.2197910
  32.7769260  38.3566860  35.6129820  32.1482420  38.4612530  34.8988050
  32.2821180  38.5763640  36.4023700  27.2227400  50.0772450  33.0463800
  27.3239380  49.8736440  32.1165780  26.3229140  49.8230730  33.2511580
  24.7453290  40.6352810  37.0287700  24.0369440  41.1039150  37.4701310
  25.0297770  39.9774820  37.6632890  26.3709220  42.0549510  45.0280230
  26.8694470  42.5295330  45.6932080  26.5132170  41.1313030  45.2350260
  28.7768720  37.3603470  38.4683490  28.6536500  37.3789600  37.5193000
  29.7253280  37.4082410  38.5881890  25.8645510  52.5958770  37.7411470
  26.1187010  52.5580160  36.8190840  24.9157990  52.4692100  37.7339720
  22.9488310  38.9437890  34.4038410  23.7978840  39.3808040  34.3378600
  22.5819580  39.2558150  35.2310470  33.5776080  38.2717470  45.8708620
  33.0749680  39.0122870  46.2102430  34.3932740  38.6601470  45.5545410
  31.8698090  43.5150650  39.3169980  30.9288230  43.5300880  39.4917670
  32.1842160  42.7286610  39.7630280  21.8479730  45.1970250  32.8773940
  22.6143000  45.0851610  33.4399370  21.9254420  44.5008220  32.2250710
  20.5426490  42.6295320  33.5606830  20.6230080  41.6822830  33.6724230
  21.4346240  42.9602200  33.6667490  33.8723670  50.6859500  40.9924240
  33.9971090  51.5090670  41.4648050  34.7389230  50.4750230  40.6448390
  21.3441200  52.7790710  40.6641370  22.0803680  52.2306170  40.9349940
  21.7282120  53.6446720  40.5247360  18.2286680  48.8464280  36.5382880
  17.3026460  49.0885420  36.5288290  18.6943110  49.6738540  36.4167630
  20.3499480  51.9636780  49.8526950  21.1512210  52.2848830  50.2662350
  19.8351300  51.6032360  50.5746860  24.4543510  51.9521020  32.4866940
  25.2472120  52.2409850  32.0348730  23.9347860  51.5213190  31.8079420
  29.1864110  48.0716650  49.8002360  28.5802270  48.0948250  49.0598110
  28.8818220  47.3399690  50.3369610  30.6164480  51.7996940  48.4111770
  31.5686230  51.7154960  48.3612010  30.4692700  52.4638650  49.0845560
  33.5073680  51.1791150  33.9103680  33.2215190  50.7656290  33.0957860
  33.3093230  52.1078860  33.7904200  18.0697290  44.4510240  48.7963000
  18.5736310  43.8717520  49.3679230  17.3304710  44.7350470  49.3339370
  24.9720910  47.1724430  32.3509290  24.8671550  46.5576780  33.0770670
  24.8045130  46.6490320  31.5672300  25.1235230  45.8581230  48.3298520
  24.3580900  46.4266230  48.2453190  25.3051190  45.5657440  47.4366750
  28.2123640  46.2344460  32.9551280  27.6633740  46.6813760  33.5994020
  28.8342900  45.7293710  33.4788950  32.2658580  47.5886560  48.8873540
  33.0068050  47.9262320  48.3841000  31.5031260  47.7578620  48.3343310
  20.1020370  42.5939830  49.6913070  20.1425710  42.2953700  50.5998300
  20.9565870  42.9947440  49.5320590  23.8798760  45.1935380  34.8516580
  24.3015180  45.0275250  35.6947970  24.0049600  44.3835610  34.3571720
  22.0426180  41.1731930  47.6587560  21.5122640  40.6822880  47.0310900
  22.7114250  41.6016130  47.1245490  26.3926400  44.2172990  32.0993680
  26.9132060  43.5022010  31.7334830  27.0394800  44.8558860  32.3994190
  30.9404240  45.6401390  47.4228750  31.3545260  45.7946470  48.2719170
  30.0055240  45.7656610  47.5854530  31.4126410  42.9797550  49.4267900
  31.9947180  42.2249870  49.3388380  31.5888180  43.5104990  48.6499380
  22.5298480  38.1394300  47.7384850  22.4355350  37.5215050  47.0135720
  21.9495870  38.8660590  47.5114760  25.2959920  36.6967540  44.7712240
  24.8477220  36.7191800  43.9257790  24.6625120  36.2986560  45.3682540
  25.7019470  45.5921870  45.3924680  26.1207580  46.4354600  45.2200920
  24.7828100  45.7293910  45.1631460  28.0383370  43.3238050  46.7762520
  28.1579580  42.7279190  47.5157360  28.8977370  43.3607740  46.3563820
  30.3771270  43.8775240  45.3525030  29.8506490  44.4017860  44.7490170
  30.7202610  44.5102630  45.9834760  22.7757660  41.2668610  31.7974740
  22.5746720  40.4035970  32.1588080  22.6049710  41.1801970  30.8596340
  23.5526890  51.8974880  46.5082410  23.0147980  52.6220940  46.1891110
  23.8060850  51.4205220  45.7179750  24.8052140  39.8659400  48.0338340
  25.3951830  39.5575250  48.7216160  23.9872380  39.3939150  48.1898240
  29.6245570  39.4825210  48.2671360  28.9361090  38.8206750  48.2021350
  30.3451590  39.0363480  48.7119820  30.2545970  36.0776840  34.3261620
  30.5348260  35.2344740  34.6821040  29.4811700  36.3099950  34.8400370
  21.5740460  38.3669230  31.7852620  21.8766360  38.3736660  30.8771770
  22.3135050  38.0167090  32.2820280  26.4089100  53.1326090  46.7669060
  26.3347800  54.0361230  47.0741430  25.5067940  52.8137990  46.7391130
  24.7925390  37.3103850  32.7708820  24.4447390  36.6327840  32.1911270
  24.9938160  36.8493360  33.5852210  26.9574430  52.2984600  34.3895420
  27.8525220  52.6369570  34.4114180  26.9892060  51.5764010  33.7619700
  20.5970590  47.6711650  32.6182420  21.0345460  48.2141320  33.2740000
  21.0818320  46.8458600  32.6278760  17.8116390  50.4600680  40.0702680
  18.1419400  49.5921740  39.8381320  18.2407390  50.6659200  40.9007640
  22.4078310  48.7909690  37.7304650  22.1073850  48.6674660  38.6308560
  22.3015800  47.9318280  37.3220380  18.3006600  51.3271270  42.8084310
  17.8637590  51.5072070  43.6408460  18.8684280  52.0845890  42.6666030
  33.9368780  50.8288270  47.0961620  33.3370770  50.8880830  46.3525540
  34.0662680  49.8893250  47.2258470  35.1770230  48.5706090  32.4331330
  34.3463190  48.6382740  32.9038560  35.3542060  49.4610210  32.1298190
  34.6326690  45.3153570  34.9365530  35.3945600  45.8850220  35.0425220
  34.6481060  44.7480770  35.7073840  18.1331030  43.8391500  39.1673190
  17.4779870  43.5703140  38.5232890  18.9708980  43.7295980  38.7175170
  35.6386660  46.1703670  39.7807460  36.0095490  45.3870990  39.3743430
  36.2788590  46.8592770  39.6024760  32.6220420  47.5540250  45.1937780
  31.8080260  47.9837410  45.4563570  33.0294620  48.1658660  44.5806830
  34.6845860  45.6087940  32.0938050  34.9594700  46.5166820  31.9657270
  34.4956600  45.5450470  33.0300040  34.5811200  43.5456930  37.0867480
  34.2054800  42.7784860  36.6548770  33.8514320  43.9279630  37.5742410
  19.1706960  44.2244070  43.7076530  19.5380000  44.1371470  44.5872550
  18.6017780  43.4610620  43.6083390  33.9710820  42.6928450  46.7207000
  33.7396910  42.4641200  45.8204950  34.2315370  43.6128000  46.6751890
  18.7222960  41.1353160  47.6134950  17.8279010  41.1019920  47.9528660
  19.2620510  41.3339950  48.3786200  32.4098890  37.9184880  49.4986700
  33.2869070  37.9268280  49.8820700  32.4219730  37.1815720  48.8879050
  17.3469110  41.0490430  35.1098520  16.4433190  41.3120630  34.9350180
  17.8309730  41.3201600  34.3298480  33.8562160  41.7714420  40.3874720
  34.3799640  41.2777070  39.7564890  34.4421580  41.9064780  41.1322290
  34.0351880  41.8554290  43.9094270  33.0854590  41.8217830  44.0239260
  34.2164890  42.7654400  43.6744040  19.8896320  40.1055970  33.0192900
  20.5988020  39.6839190  32.5340180  19.1736260  40.1731200  32.3876250
  19.5370480  36.1595300  32.0595550  20.2598610  36.7004240  32.3776770
  19.8095000  35.8858720  31.1837090  33.3462130  41.0287770  36.3267130
  33.8421250  40.7958640  37.1116010  33.1478200  40.1899610  35.9104770
  19.2262670  35.4101490  41.9618170  19.8738860  34.8598870  41.5213330
  19.6464510  35.6644640  42.7833980  34.7749290  39.6648720  38.8604810
  34.6648570  39.5104760  39.7987080  35.5356880  39.1369660  38.6180220
  33.1215010  35.6042850  45.3187810  33.7587230  36.2176990  45.6847000
  33.2689900  35.6403510  44.3737040  32.6796470  52.3058850  38.7206050
  33.2755540  51.9843420  38.0440470  32.9374620  51.8330670  39.5119320
  18.9794670  35.5657160  44.7043490  18.6309490  36.0220980  45.4701670
  18.6482370  34.6714290  44.7865920  20.5859040  48.7376760  48.8696680
  20.5428670  48.3669670  49.7511140  20.7170050  49.6754330  49.0098500
  24.2865070  50.2936350  44.4706400  24.0456430  50.5610910  43.5836920
  25.2267710  50.4642080  44.5257260  26.4919490  36.7569040  48.2262910
  26.4308380  37.3490870  48.9758320  27.4319870  36.6495000  48.0813170
  29.1294050  36.4139100  47.8655200  29.7434460  36.7318390  47.2036280
  29.6743610  35.9287690  48.4851060  35.5469230  52.3130730  45.2717040
  35.0527510  52.7099600  44.5544170  34.9382520  51.6879940  45.6654320
  19.6515310  35.0933360  47.9794260  20.1998300  34.9121410  47.2160370
  19.7170620  34.3027470  48.5150570  20.4247070  51.6839010  45.9894460
  19.8307390  51.5523710  46.7284500  20.4170910  50.8477150  45.5236560
  29.8702090  34.9771240  44.1924490  28.9961930  35.3106350  43.9897420
  29.7612840  34.5044420  45.0176360  30.7774070  37.1842110  45.5766210
  30.4487430  36.3693870  45.1967940  31.7256370  37.1411920  45.4531900
  33.2308680  52.9554150  42.5503780  32.7711650  53.7069960  42.1761800
  32.6021140  52.2360620  42.4918580  20.0559300  49.0497390  44.9402500
  19.3293360  48.4302680  44.8728450  20.1168450  49.4438000  44.0700580
  23.6604400  51.2642390  41.7251910  24.1769420  50.6529750  41.2000170
  24.3101780  51.7671170  42.2162920  26.3999900  52.1550880  42.5520890
  26.6877710  51.9005180  41.6753900  26.9123120  51.6028240  43.1426460
  27.6176910  35.8941080  43.1317400  26.8348700  36.3686580  43.4114160
  27.3239840  34.9895910  43.0230580  32.1697980  36.5964180  41.1766490
  32.6106070  36.5409280  40.3288090  31.9005570  37.5122190  41.2476670
  34.0336550  36.2279420  39.1875310  33.9724950  35.2840640  39.0406330
  34.8128580  36.3359510  39.7328770  18.3389300  52.3671780  38.1499260
  18.1711340  51.7342460  38.8481150  17.4723810  52.5731180  37.7993450
  18.9617320  36.1988560  35.6531120  19.7196680  36.3117440  35.0795150
  18.4994490  37.0357760  35.6074550  25.5031130  38.3127830  38.6433430
  24.6905640  37.9384720  38.3029310  26.0072770  37.5572910  38.9454620
  30.0056110  34.9770280  39.8816500  30.6085480  35.5490490  40.3565020
  29.2649100  35.5409720  39.6590400  19.9452000  51.0605010  35.5949400
  19.4199620  51.4413040  34.8911360  19.8696580  51.6855780  36.3159110
  21.3342470  36.7252610  34.1933090  21.8635230  35.9382410  34.0641040
  21.9670790  37.4043800  34.4268620  23.5280310  36.4627750  37.2478480
  22.8983050  35.7615060  37.4148610  22.9885450  37.2231880  37.0311640
  26.4672260  53.0766980  49.9189090  27.3939570  52.8411250  49.9625050
  26.4522690  53.9038980  49.4375120  34.7017320  52.6192550  36.9163340
  34.8769510  51.9330290  36.2724260  34.0038890  53.1439600  36.5240010
  23.6535870  35.7411730  49.6830970  23.3720140  36.2445330  48.9191790
  24.0355570  34.9433480  49.3173100  22.5444970  53.0087390  34.4698650
  23.2763790  52.7246670  33.9222540  22.8038640  52.7700670  35.3598030
  21.7059760  49.1252120  34.4744980  21.0768640  49.5937220  35.0230810
  21.8207590  48.2801340  34.9091170  30.2551330  35.1565310  50.2611440
  30.1416780  35.4759920  51.1562960  31.0721070  35.5577820  49.9648720
  33.0349820  52.3036840  49.7430130  33.8275140  51.8086070  49.5356090
  33.3282970  52.9826980  50.3505740  29.1609480  43.1757780  20.6246180
  29.0803530  42.2612390  20.3537890  28.7473900  43.6724850  19.9185890
  27.2927520  44.9536800  22.5055450  26.5169620  44.4737240  22.7954020
  27.9440450  44.2742450  22.3311610  21.3093350  45.2656610  23.3831210
  20.4778230  45.0105320  23.7827720  21.9174330  45.3367380  24.1189130
  31.3134950  49.3596990  21.2854580  30.8516480  48.5884230  21.6141750
  32.1260500  49.3863060  21.7907030  21.2894610  49.2996700  23.5789230
  21.5922650  48.4094440  23.3999450  22.0338200  49.8566920  23.3511480
  19.7185300  40.2258500  17.1673600  18.8302000  40.5674470  17.0653480
  20.0026490  40.0258820  16.2754430  17.6818310  42.8264150  23.0513300
  18.2534420  42.0586350  23.0516940  17.6819850  43.1252910  22.1419910
  27.5398260  51.6455000  20.9058570  26.9209700  52.1012500  20.3353010
  28.3950040  51.8006460  20.5048270  26.7336510  47.6293990  22.5125610
  26.6644790  46.6883930  22.3514740  27.4956370  47.7195400  23.0848180
  18.9243180  38.2348510  24.8382230  18.7446020  37.3374260  25.1184990
  18.5223260  38.7820380  25.5129180  27.7641680  40.4364370  22.7394540
  28.1406500  39.5636250  22.6268210  27.6661190  40.7723070  21.8484980
  21.8946690  38.8090000  18.2011980  22.0013440  39.7093730  18.5080740
  20.9839050  38.7607970  17.9106630  31.5465800  37.9314810  19.6722880
  32.3675420  37.4411380  19.7148360  31.5799880  38.5212470  20.4254720
  19.5429850  40.7309010  23.4464570  20.2239960  40.9947380  24.0651970
  19.2277900  39.8909880  23.7802580  23.7354420  41.7776370  22.5337160
  24.2432640  42.2757340  23.1742180  24.2667660  41.0011570  22.3576520
  35.8365350  39.9481560  26.2366510  35.1317520  40.3363270  25.7181620
  36.1023270  40.6431850  26.8387440  22.0190520  36.4174930  26.8000580
  22.0208960  36.9347320  25.9946480  21.1894830  35.9405110  26.7770510
  28.4061610  46.5294240  18.2990480  27.7878880  46.9943690  17.7353200
  28.9184860  47.2221720  18.7159990  23.2693370  46.0570110  24.9774080
  22.9362750  46.6839030  25.6195150  23.4460050  46.5831990  24.1975750
  31.7827280  39.8715190  22.4450420  31.0782850  40.1600080  23.0253530
  32.1439440  40.6815300  22.0849980  21.7005850  38.1284890  24.8071030
  22.0422660  38.9726940  24.5124900  20.7621660  38.2768630  24.9236370
  22.4812470  48.0250910  26.7923260  23.0986470  48.7001990  26.5107710
  21.6205590  48.4338890  26.7010760  17.7744810  47.2150770  15.6730110
  17.3972790  47.7037870  14.9415010  18.0317880  47.8876050  16.3036640
  33.3990060  49.4890320  24.7077900  32.7153580  50.1589430  24.6994570
  33.9384350  49.6870970  23.9422760  34.8514200  39.3169980  22.8359630
  33.9039110  39.3508960  22.9675060  35.1764190  40.1308930  23.2208990
  25.3833740  35.6167160  21.1315620  25.6908720  35.0614050  20.4151120
  24.4534440  35.7511620  20.9488610  30.9348800  51.3334450  23.4223080
  30.9475960  50.9296740  22.5545340  30.3824020  52.1081740  23.3184510
  32.2294220  48.0550670  18.5113250  32.1190550  47.1125000  18.6362670
  32.2262470  48.4166310  19.3976010  30.3334240  46.2364290  24.7505690
  30.7503030  46.0224400  23.9159150  31.0574060  46.4937080  25.3214310
  27.7714500  43.6815990  17.8675740  26.8443780  43.6153370  18.0964210
  27.9239320  44.6196120  17.7530980  27.7583580  39.9532990  14.8642900
  26.8187250  40.1146950  14.9495360  28.0766840  40.6718670  14.3178890
  34.2796340  44.6351510  24.8421930  33.4514970  44.7044600  24.3672060
  34.8746820  45.2205820  24.3737760  31.8011790  45.2436290  18.3710990
  31.1824210  44.9055840  17.7237290  31.7836240  44.5996050  19.0790180
  31.2438350  41.4220830  25.7876800  30.8309530  42.2474540  26.0416790
  30.5114300  40.8365870  25.5953160  23.3771140  44.2080730  20.6495470
  22.9728140  43.4957980  20.1541370  23.4634260  43.8633970  21.5383510
  23.8452840  47.8948290  22.8134680  23.5481130  47.2893760  22.1342460
  24.7952660  47.9325600  22.7024040  22.0899760  40.9823940  24.4294510
  22.6414350  41.0919280  23.6547760  22.6043270  41.3561540  25.1449740
  31.9338450  51.4680160  26.4757780  31.4569010  52.2752350  26.2830390
  31.2500240  50.8158490  26.6283990  22.9371270  47.6329980  29.4642480
  22.0399800  47.8569950  29.7115880  22.9624140  47.7564920  28.5153880
  29.9776490  44.4823100  15.3783740  30.4169770  43.6445530  15.2321560
  30.6904910  45.1152500  15.4647880  21.7642490  44.5043300  28.0399850
  21.6250260  45.3766100  28.4087250  20.8823850  44.1616110  27.8947790
  28.0871870  49.4219170  19.3464980  28.5267780  50.1643500  18.9320370
  28.0258760  49.6645740  20.2703940  23.5622840  50.4465000  30.2485000
  23.5338270  50.8507950  29.3813430  23.3987810  49.5175360  30.0856600
  33.5593630  35.7365910  13.6924780  33.2466290  35.8292740  14.5923850
  34.3206100  36.3146940  13.6422210  20.0775770  43.1025710  18.1502120
  19.9573370  43.8287800  17.5383390  19.7676660  42.3328620  17.6730030
  35.5137660  51.2292100  31.5449170  35.9897380  51.7074990  32.2238250
  36.1344820  51.1609590  30.8194670  17.7161140  46.2740850  23.9570760
  17.7941560  46.4089620  23.0126480  18.3302820  45.5656740  24.1498880
  18.9608770  47.9741040  20.3676940  18.5536850  48.1155630  19.5130540
  19.8521780  47.6901200  20.1648150  34.9170910  48.4204950  28.7049180
  35.0433970  48.1816830  27.7866360  34.9592290  47.5889490  29.1771260
  28.7787650  52.1232950  27.2743990  29.2932320  52.0340960  28.0766420
  27.9356730  52.4692650  27.5671900  30.7542050  52.4088290  16.7027990
  30.5943190  52.1191230  17.6009820  30.5888760  51.6328420  16.1673220
  23.2330430  52.1886820  18.4799610  23.0572910  51.2722360  18.2667410
  22.3786170  52.5474110  18.7197410  30.4568180  49.9175850  15.2625990
  29.7633340  49.9153140  14.6028270  31.1991040  49.4935170  14.8320160
  30.0218110  51.5438560  19.3374480  30.4775060  50.7627940  19.6513100
  30.3610630  52.2545380  19.8815660  17.7720660  47.3155020  26.4965220
  17.9351700  46.8460380  25.6784590  18.2373110  46.8078580  27.1614060
  22.5439430  36.4460780  21.5325790  22.1007580  37.2270320  21.2010310
  23.1024420  36.7690670  22.2396730  26.8309240  39.3129300  27.1361110
  26.3688610  39.5212320  27.9481050  26.4287350  38.4988650  26.8331780
  31.8313750  40.5338250  28.2657770  30.9807340  40.2344000  28.5866840
  31.6715540  40.7780260  27.3541590  28.9263460  42.0340000  30.3656560
  29.2516870  41.2003750  30.0258790  29.7143790  42.5568520  30.5134890
  25.6598250  36.0671480  16.4131620  25.0352430  36.0631350  17.1384930
  25.5728370  35.2002440  16.0167590  24.5815330  36.9908110  23.3915390
  24.8787660  37.8970940  23.3107410  25.1300890  36.5026890  22.7774960
  22.3353650  41.5694350  19.2607040  22.1094570  41.3531520  20.1653660
  21.5546180  42.0022810  18.9153010  29.5651410  41.5757720  17.8597690
  28.9660300  42.2993520  17.6761310  30.1131020  41.5134500  17.0774140
  24.7752860  42.4679930  29.9267310  24.6796460  41.5274660  29.7767710
  25.6184840  42.6895000  29.5315380  28.1716280  40.2121260  19.8900970
  28.5645850  40.5293460  19.0769660  28.5333130  39.3333140  20.0045490
  19.9063400  38.8793600  28.0801090  19.5126790  39.7268810  28.2873870
  19.2181800  38.2419970  28.2709730  26.4808450  38.9628570  31.1497830
  25.7906770  38.7700770  31.7843920  27.2240750  39.2463210  31.6822130
  17.2080450  36.8022060  22.1131170  16.9193500  37.3724920  22.8256150
  17.9526210  36.3226510  22.4762400  17.3950680  40.7442180  13.3233890
  17.3125350  41.6872940  13.4648880  17.0433740  40.6017090  12.4446240
  28.7571420  42.8027010  23.9851750  28.0252540  43.3113820  24.3341850
  28.3595760  41.9856990  23.6840530  25.1948810  39.4781210  22.3904240
  25.1984870  39.0371160  21.5408780  26.0899930  39.7998540  22.4976060
  21.0451190  39.3607700  21.3498450  20.7051240  39.8382930  22.1065500
  20.2828510  38.9072820  20.9899550  25.2568960  40.4793290  15.3811000
  25.3781780  40.4379770  16.3296820  24.8717470  41.3417440  15.2257730
  29.2197330  38.2560690  23.3974690  29.2370070  38.7069340  24.2416540
  28.9712910  37.3566330  23.6108130  24.2690460  42.7894430  14.7794300
  23.7007360  42.3412680  14.1530210  24.9779460  43.1487210  14.2459450
  19.3459640  46.6906450  28.6561030  18.9614430  46.0500120  29.2543990
  19.6571830  47.3942570  29.2255760  25.4956780  43.5382990  24.1369650
  25.8626910  43.0641560  24.8830990  25.3061840  44.4124560  24.4777990
  18.3597270  38.2826680  20.2663120  18.0744190  37.9182350  21.1041740
  18.2976130  37.5507140  19.6526260  23.2856150  42.5791630  26.4553860
  22.9813220  43.4583610  26.6804220  24.2402610  42.6391420  26.4911300
  21.8137940  46.7852620  17.0520710  21.0400200  46.2450240  16.8919430
  22.5432570  46.2659230  16.7138470  32.5725920  45.7817980  22.8447100
  33.2925040  46.2773270  22.4543210  32.3707740  45.1035870  22.2000970
  28.0335860  37.1755940  16.9876490  27.2200470  36.6769110  16.9121800
  27.8397810  38.0154190  16.5712840  27.9544720  45.8527040  28.7316100
  27.8882030  44.9322710  28.4773690  27.3249860  45.9502480  29.4460740
  30.7484250  41.5475590  15.2838650  31.6363870  41.8592820  15.1089990
  30.7189340  40.6747840  14.8919230  21.8575340  46.4533000  20.6899520
  22.3754010  45.6501260  20.6356410  21.4059360  46.3912140  21.5316350
  26.7444840  47.7199280  15.9626820  27.0860540  48.4641510  15.4670140
  25.9157550  48.0330400  16.3251650  19.3419880  43.4194370  27.6025220
  18.9834820  44.0848220  28.1898560  19.0474440  42.5877920  27.9737840
  22.5433000  43.8778610  30.4864770  22.2433140  44.0235790  29.5892590
  23.3144240  43.3183900  30.3938160  27.8861450  48.6747610  28.4819900
  27.9005990  47.7428570  28.2638810  27.1786550  48.7607370  29.1209670
  33.0198520  42.8587430  14.7518510  32.9362240  43.2901650  13.9014950
  33.7392710  43.3185780  15.1845330  34.0972660  45.3154950  27.8288480
  33.3720850  45.9083730  27.6317870  34.6248120  45.3078490  27.0301850
  34.0485770  49.7129690  17.4800640  33.4061930  49.0585310  17.7544360
  33.6616430  50.1184780  16.7041310  29.6272250  47.0415120  21.3272330
  29.9796070  46.4443250  20.6673700  28.7434580  46.7159350  21.4980580
  25.7135530  47.8012810  18.7342740  26.4006660  48.3482020  19.1150330
  24.9267950  48.3453540  18.7692350  17.8527930  43.4185630  14.2259820
  18.7222780  43.7010430  14.5095740  17.3618250  44.2321500  14.1108630
  25.0162740  44.8058840  18.3468100  25.4725520  45.6164090  18.5728290
  24.6650950  44.4881980  19.1786590  27.3195350  50.3165180  25.5760400
  27.9637570  50.5224560  26.2533820  27.6824790  49.5553580  25.1231250
  20.9174520  35.1496490  18.8190620  20.7889150  35.1414390  19.7675540
  20.0936540  35.4879580  18.4681630  28.5927430  48.3197530  24.2937850
  29.2349660  47.6190690  24.4070020  29.1176780  49.0995970  24.1134740
  32.4383150  48.6046150  14.0176990  32.2120730  47.8876590  14.6101630
  32.0479350  48.3558590  13.1798740  30.3665050  49.1192430  27.4973910
  30.7021290  49.7059120  28.1751830  29.4465390  48.9885140  27.7271700
  18.2199180  52.6313010  14.7921450  18.5796820  53.2302350  14.1378720
  18.0791520  53.1772900  15.5656480  17.9168450  36.9087610  28.2797320
  17.2026970  37.1084530  28.8849930  18.3363490  36.1327180  28.6512120
  32.0199400  46.5218090  15.6791150  31.7321100  46.9830780  16.4669030
  32.8151570  46.0615860  15.9475370  18.2041040  50.8967870  29.2663850
  18.3132160  49.9562610  29.1259240  17.5521600  51.1622620  28.6177580
  26.1953630  49.1683760  30.6661970  25.8750500  48.4493000  31.2107660
  25.5211990  49.8438830  30.7398030  24.2367800  50.0144210  15.6095120
  24.2277900  50.7473900  14.9939630  23.3166160  49.7675790  15.7022080
  19.8374440  45.2359100  16.3541880  19.2302390  45.9758000  16.3637180
  20.3123790  45.3258460  15.5280080  29.4107230  39.4009920  26.0298770
  29.7788050  38.5805130  26.3578340  28.5505430  39.4611810  26.4454420
  32.7769260  38.3566860  16.8386330  32.1482420  38.4612530  16.1244560
  32.2821180  38.5763640  17.6280210  27.2227400  50.0772450  14.2720310
  27.3239380  49.8736440  13.3422290  26.3229140  49.8230730  14.4768090
  24.7453290  40.6352810  18.2544210  24.0369440  41.1039150  18.6957820
  25.0297770  39.9774820  18.8889400  26.3709220  42.0549510  26.2536740
  26.8694470  42.5295330  26.9188590  26.5132170  41.1313030  26.4606770
  28.7768720  37.3603470  19.6940000  28.6536500  37.3789600  18.7449510
  29.7253280  37.4082410  19.8138400  25.8645510  52.5958770  18.9667980
  26.1187010  52.5580160  18.0447350  24.9157990  52.4692100  18.9596230
  22.9488310  38.9437890  15.6294920  23.7978840  39.3808040  15.5635110
  22.5819580  39.2558150  16.4566980  33.5776080  38.2717470  27.0965130
  33.0749680  39.0122870  27.4358940  34.3932740  38.6601470  26.7801920
  31.8698090  43.5150650  20.5426490  30.9288230  43.5300880  20.7174180
  32.1842160  42.7286610  20.9886790  21.8479730  45.1970250  14.1030450
  22.6143000  45.0851610  14.6655880  21.9254420  44.5008220  13.4507220
  20.5426490  42.6295320  14.7863340  20.6230080  41.6822830  14.8980740
  21.4346240  42.9602200  14.8924000  33.8723670  50.6859500  22.2180750
  33.9971090  51.5090670  22.6904560  34.7389230  50.4750230  21.8704900
  21.3441200  52.7790710  21.8897880  22.0803680  52.2306170  22.1606450
  21.7282120  53.6446720  21.7503870  18.2286680  48.8464280  17.7639390
  17.3026460  49.0885420  17.7544800  18.6943110  49.6738540  17.6424140
  20.3499480  51.9636780  31.0783460  21.1512210  52.2848830  31.4918860
  19.8351300  51.6032360  31.8003370  24.4543510  51.9521020  13.7123450
  25.2472120  52.2409850  13.2605240  23.9347860  51.5213190  13.0335930
  29.1864110  48.0716650  31.0258870  28.5802270  48.0948250  30.2854620
  28.8818220  47.3399690  31.5626120  30.6164480  51.7996940  29.6368280
  31.5686230  51.7154960  29.5868520  30.4692700  52.4638650  30.3102070
  33.5073680  51.1791150  15.1360190  33.2215190  50.7656290  14.3214370
  33.3093230  52.1078860  15.0160710  18.0697290  44.4510240  30.0219510
  18.5736310  43.8717520  30.5935740  17.3304710  44.7350470  30.5595880
  24.9720910  47.1724430  13.5765800  24.8671550  46.5576780  14.3027180
  24.8045130  46.6490320  12.7928810  25.1235230  45.8581230  29.5555030
  24.3580900  46.4266230  29.4709700  25.3051190  45.5657440  28.6623260
  28.2123640  46.2344460  14.1807790  27.6633740  46.6813760  14.8250530
  28.8342900  45.7293710  14.7045460  32.2658580  47.5886560  30.1130050
  33.0068050  47.9262320  29.6097510  31.5031260  47.7578620  29.5599820
  20.1020370  42.5939830  30.9169580  20.1425710  42.2953700  31.8254810
  20.9565870  42.9947440  30.7577100  23.8798760  45.1935380  16.0773090
  24.3015180  45.0275250  16.9204480  24.0049600  44.3835610  15.5828230
  22.0426180  41.1731930  28.8844070  21.5122640  40.6822880  28.2567410
  22.7114250  41.6016130  28.3502000  26.3926400  44.2172990  13.3250190
  26.9132060  43.5022010  12.9591340  27.0394800  44.8558860  13.6250700
  30.9404240  45.6401390  28.6485260  31.3545260  45.7946470  29.4975680
  30.0055240  45.7656610  28.8111040  31.4126410  42.9797550  30.6524410
  31.9947180  42.2249870  30.5644890  31.5888180  43.5104990  29.8755890
  22.5298480  38.1394300  28.9641360  22.4355350  37.5215050  28.2392230
  21.9495870  38.8660590  28.7371270  25.2959920  36.6967540  25.9968750
  24.8477220  36.7191800  25.1514300  24.6625120  36.2986560  26.5939050
  25.7019470  45.5921870  26.6181190  26.1207580  46.4354600  26.4457430
  24.7828100  45.7293910  26.3887970  28.0383370  43.3238050  28.0019030
  28.1579580  42.7279190  28.7413870  28.8977370  43.3607740  27.5820330
  30.3771270  43.8775240  26.5781540  29.8506490  44.4017860  25.9746680
  30.7202610  44.5102630  27.2091270  22.7757660  41.2668610  13.0231250
  22.5746720  40.4035970  13.3844590  22.6049710  41.1801970  12.0852850
  23.5526890  51.8974880  27.7338920  23.0147980  52.6220940  27.4147620
  23.8060850  51.4205220  26.9436260  24.8052140  39.8659400  29.2594850
  25.3951830  39.5575250  29.9472670  23.9872380  39.3939150  29.4154750
  29.6245570  39.4825210  29.4927870  28.9361090  38.8206750  29.4277860
  30.3451590  39.0363480  29.9376330  30.2545970  36.0776840  15.5518130
  30.5348260  35.2344740  15.9077550  29.4811700  36.3099950  16.0656880
  21.5740460  38.3669230  13.0109130  21.8766360  38.3736660  12.1028280
  22.3135050  38.0167090  13.5076790  26.4089100  53.1326090  27.9925570
  26.3347800  54.0361230  28.2997940  25.5067940  52.8137990  27.9647640
  24.7925390  37.3103850  13.9965330  24.4447390  36.6327840  13.4167780
  24.9938160  36.8493360  14.8108720  26.9574430  52.2984600  15.6151930
  27.8525220  52.6369570  15.6370690  26.9892060  51.5764010  14.9876210
  20.5970590  47.6711650  13.8438930  21.0345460  48.2141320  14.4996510
  21.0818320  46.8458600  13.8535270  17.8116390  50.4600680  21.2959190
  18.1419400  49.5921740  21.0637830  18.2407390  50.6659200  22.1264150
  22.4078310  48.7909690  18.9561160  22.1073850  48.6674660  19.8565070
  22.3015800  47.9318280  18.5476890  18.3006600  51.3271270  24.0340820
  17.8637590  51.5072070  24.8664970  18.8684280  52.0845890  23.8922540
  33.9368780  50.8288270  28.3218130  33.3370770  50.8880830  27.5782050
  34.0662680  49.8893250  28.4514980  35.1770230  48.5706090  13.6587840
  34.3463190  48.6382740  14.1295070  35.3542060  49.4610210  13.3554700
  34.6326690  45.3153570  16.1622040  35.3945600  45.8850220  16.2681730
  34.6481060  44.7480770  16.9330350  18.1331030  43.8391500  20.3929700
  17.4779870  43.5703140  19.7489400  18.9708980  43.7295980  19.9431680
  35.6386660  46.1703670  21.0063970  36.0095490  45.3870990  20.5999940
  36.2788590  46.8592770  20.8281270  32.6220420  47.5540250  26.4194290
  31.8080260  47.9837410  26.6820080  33.0294620  48.1658660  25.8063340
  34.6845860  45.6087940  13.3194560  34.9594700  46.5166820  13.1913780
  34.4956600  45.5450470  14.2556550  31.0821470  38.6332790  14.6148190
  31.5006350  38.4463770  13.7744850  30.7757530  37.7811840  14.9251120
  34.5811200  43.5456930  18.3123990  34.2054800  42.7784860  17.8805280
  33.8514320  43.9279630  18.7998920  19.1706960  44.2244070  24.9333040
  19.5380000  44.1371470  25.8129060  18.6017780  43.4610620  24.8339900
  33.9710820  42.6928450  27.9463510  33.7396910  42.4641200  27.0461460
  34.2315370  43.6128000  27.9008400  18.7222960  41.1353160  28.8391460
  17.8279010  41.1019920  29.1785170  19.2620510  41.3339950  29.6042710
  17.3469110  41.0490430  16.3355030  16.4433190  41.3120630  16.1606690
  17.8309730  41.3201600  15.5554990  33.8562160  41.7714420  21.6131230
  34.3799640  41.2777070  20.9821400  34.4421580  41.9064780  22.3578800
  34.0351880  41.8554290  25.1350780  33.0854590  41.8217830  25.2495770
  34.2164890  42.7654400  24.9000550  19.8896320  40.1055970  14.2449410
  20.5988020  39.6839190  13.7596690  19.1736260  40.1731200  13.6132760
  19.5370480  36.1595300  13.2852060  20.2598610  36.7004240  13.6033280
  19.8095000  35.8858720  12.4093600  33.3462130  41.0287770  17.5523640
  33.8421250  40.7958640  18.3372520  33.1478200  40.1899610  17.1361280
  19.2262670  35.4101490  23.1874680  19.8738860  34.8598870  22.7469840
  19.6464510  35.6644640  24.0090490  34.7749290  39.6648720  20.0861320
  34.6648570  39.5104760  21.0243590  35.5356880  39.1369660  19.8436730
  33.1215010  35.6042850  26.5444320  33.7587230  36.2176990  26.9103510
  33.2689900  35.6403510  25.5993550  35.6639560  37.4956640  13.3267460
  36.5888870  37.3637820  13.1185750  35.6415350  37.5749460  14.2803910
  35.7378050  38.2667300  15.9524170  34.9429550  38.2012420  16.4817080
  35.9421330  39.2017940  15.9409520  32.6796470  52.3058850  19.9462560
  33.2755540  51.9843420  19.2696980  32.9374620  51.8330670  20.7375830
  18.9794670  35.5657160  25.9300000  18.6309490  36.0220980  26.6958180
  18.6482370  34.6714290  26.0122430  20.5859040  48.7376760  30.0953190
  20.5428670  48.3669670  30.9767650  20.7170050  49.6754330  30.2355010
  24.2865070  50.2936350  25.6962910  24.0456430  50.5610910  24.8093430
  25.2267710  50.4642080  25.7513770  26.4919490  36.7569040  29.4519420
  26.4308380  37.3490870  30.2014830  27.4319870  36.6495000  29.3069680
  29.1294050  36.4139100  29.0911710  29.7434460  36.7318390  28.4292790
  29.6743610  35.9287690  29.7107570  35.5469230  52.3130730  26.4973550
  35.0527510  52.7099600  25.7800680  34.9382520  51.6879940  26.8910830
  19.6515310  35.0933360  29.2050770  20.1998300  34.9121410  28.4416880
  19.7170620  34.3027470  29.7407080  20.4247070  51.6839010  27.2150970
  19.8307390  51.5523710  27.9541010  20.4170910  50.8477150  26.7493070
  29.8702090  34.9771240  25.4181000  28.9961930  35.3106350  25.2153930
  29.7612840  34.5044420  26.2432870  30.7774070  37.1842110  26.8022720
  30.4487430  36.3693870  26.4224450  31.7256370  37.1411920  26.6788410
  33.2308680  52.9554150  23.7760290  32.7711650  53.7069960  23.4018310
  32.6021140  52.2360620  23.7175090  20.0559300  49.0497390  26.1659010
  19.3293360  48.4302680  26.0984960  20.1168450  49.4438000  25.2957090
  23.6604400  51.2642390  22.9508420  24.1769420  50.6529750  22.4256680
  24.3101780  51.7671170  23.4419430  26.3999900  52.1550880  23.7777400
  26.6877710  51.9005180  22.9010410  26.9123120  51.6028240  24.3682970
  27.6176910  35.8941080  24.3573910  26.8348700  36.3686580  24.6370670
  27.3239840  34.9895910  24.2487090  32.1697980  36.5964180  22.4023000
  32.6106070  36.5409280  21.5544600  31.9005570  37.5122190  22.4733180
  34.0336550  36.2279420  20.4131820  33.9724950  35.2840640  20.2662840
  34.8128580  36.3359510  20.9585280  18.3389300  52.3671780  19.3755770
  18.1711340  51.7342460  20.0737660  17.4723810  52.5731180  19.0249960
  18.9617320  36.1988560  16.8787630  19.7196680  36.3117440  16.3051660
  18.4994490  37.0357760  16.8331060  25.5031130  38.3127830  19.8689940
  24.6905640  37.9384720  19.5285820  26.0072770  37.5572910  20.1711130
  30.0056110  34.9770280  21.1073010  30.6085480  35.5490490  21.5821530
  29.2649100  35.5409720  20.8846910  33.1490710  35.3791840  16.3813290
  33.3441340  36.2775290  16.6480720  32.3620580  35.1478920  16.8746240
  19.9452000  51.0605010  16.8205910  19.4199620  51.4413040  16.1167870
  19.8696580  51.6855780  17.5415620  21.3342470  36.7252610  15.4189600
  21.8635230  35.9382410  15.2897550  21.9670790  37.4043800  15.6525130
  23.5280310  36.4627750  18.4734990  22.8983050  35.7615060  18.6405120
  22.9885450  37.2231880  18.2568150  26.4672260  53.0766980  31.1445600
  27.3939570  52.8411250  31.1881560  26.4522690  53.9038980  30.6631630
  34.7017320  52.6192550  18.1419850  34.8769510  51.9330290  17.4980770
  34.0038890  53.1439600  17.7496520  23.6535870  35.7411730  30.9087480
  23.3720140  36.2445330  30.1448300  24.0355570  34.9433480  30.5429610
  22.5444970  53.0087390  15.6955160  23.2763790  52.7246670  15.1479050
  22.8038640  52.7700670  16.5854540  21.7059760  49.1252120  15.7001490
  21.0768640  49.5937220  16.2487320  21.8207590  48.2801340  16.1347680
  33.0349820  52.3036840  30.9686640  33.8275140  51.8086070  30.7612600
  33.3282970  52.9826980  31.5762250  27.2927520  44.9536800   3.7311960
  26.5169620  44.4737240   4.0210530  27.9440450  44.2742450   3.5568120
  21.3093350  45.2656610   4.6087720  20.4778230  45.0105320   5.0084230
  21.9174330  45.3367380   5.3445640  31.3134950  49.3596990   2.5111090
  30.8516480  48.5884230   2.8398260  32.1260500  49.3863060   3.0163540
  21.2894610  49.2996700   4.8045740  21.5922650  48.4094440   4.6255960
  22.0338200  49.8566920   4.5767990  17.6818310  42.8264150   4.2769810
  18.2534420  42.0586350   4.2773450  17.6819850  43.1252910   3.3676420
  26.7336510  47.6293990   3.7382120  26.6644790  46.6883930   3.5771250
  27.4956370  47.7195400   4.3104690  18.9243180  38.2348510   6.0638740
  18.7446020  37.3374260   6.3441500  18.5223260  38.7820380   6.7385690
  27.7641680  40.4364370   3.9651050  28.1406500  39.5636250   3.8524720
  27.6661190  40.7723070   3.0741490  19.5429850  40.7309010   4.6721080
  20.2239960  40.9947380   5.2908480  19.2277900  39.8909880   5.0059090
  23.7354420  41.7776370   3.7593670  24.2432640  42.2757340   4.3998690
  24.2667660  41.0011570   3.5833030  35.8365350  39.9481560   7.4623020
  35.1317520  40.3363270   6.9438130  36.1023270  40.6431850   8.0643950
  22.0190520  36.4174930   8.0257090  22.0208960  36.9347320   7.2202990
  21.1894830  35.9405110   8.0027020  23.2693370  46.0570110   6.2030590
  22.9362750  46.6839030   6.8451660  23.4460050  46.5831990   5.4232260
  31.7827280  39.8715190   3.6706930  31.0782850  40.1600080   4.2510040
  32.1439440  40.6815300   3.3106490  21.7005850  38.1284890   6.0327540
  22.0422660  38.9726940   5.7381410  20.7621660  38.2768630   6.1492880
  22.4812470  48.0250910   8.0179770  23.0986470  48.7001990   7.7364220
  21.6205590  48.4338890   7.9267270  33.3990060  49.4890320   5.9334410
  32.7153580  50.1589430   5.9251080  33.9384350  49.6870970   5.1679270
  34.8514200  39.3169980   4.0616140  33.9039110  39.3508960   4.1931570
  35.1764190  40.1308930   4.4465500  30.9348800  51.3334450   4.6479590
  30.9475960  50.9296740   3.7801850  30.3824020  52.1081740   4.5441020
  30.3334240  46.2364290   5.9762200  30.7503030  46.0224400   5.1415660
  31.0574060  46.4937080   6.5470820  34.2796340  44.6351510   6.0678440
  33.4514970  44.7044600   5.5928570  34.8746820  45.2205820   5.5994270
  31.2438350  41.4220830   7.0133310  30.8309530  42.2474540   7.2673300
  30.5114300  40.8365870   6.8209670  23.8452840  47.8948290   4.0391190
  23.5481130  47.2893760   3.3598970  24.7952660  47.9325600   3.9280550
  22.0899760  40.9823940   5.6551020  22.6414350  41.0919280   4.8804270
  22.6043270  41.3561540   6.3706250  31.9338450  51.4680160   7.7014290
  31.4569010  52.2752350   7.5086900  31.2500240  50.8158490   7.8540500
  22.9371270  47.6329980  10.6898990  22.0399800  47.8569950  10.9372390
  22.9624140  47.7564920   9.7410390  21.7642490  44.5043300   9.2656360
  21.6250260  45.3766100   9.6343760  20.8823850  44.1616110   9.1204300
  23.5622840  50.4465000  11.4741510  23.5338270  50.8507950  10.6069940
  23.3987810  49.5175360  11.3113110  35.5137660  51.2292100  12.7705680
  35.9897380  51.7074990  13.4494760  36.1344820  51.1609590  12.0451180
  17.7161140  46.2740850   5.1827270  17.7941560  46.4089620   4.2382990
  18.3302820  45.5656740   5.3755390  34.9170910  48.4204950   9.9305690
  35.0433970  48.1816830   9.0122870  34.9592290  47.5889490  10.4027770
  28.7787650  52.1232950   8.5000500  29.2932320  52.0340960   9.3022930
  27.9356730  52.4692650   8.7928410  34.7694920  40.4737410  10.8955430
  34.1539190  40.9817080  10.3670890  34.4491340  39.5735740  10.8381370
  17.7720660  47.3155020   7.7221730  17.9351700  46.8460380   6.9041100
  18.2373110  46.8078580   8.3870570  22.5439430  36.4460780   2.7582300
  22.1007580  37.2270320   2.4266820  23.1024420  36.7690670   3.4653240
  26.8309240  39.3129300   8.3617620  26.3688610  39.5212320   9.1737560
  26.4287350  38.4988650   8.0588290  31.8313750  40.5338250   9.4914280
  30.9807340  40.2344000   9.8123350  31.6715540  40.7780260   8.5798100
  28.9263460  42.0340000  11.5913070  29.2516870  41.2003750  11.2515300
  29.7143790  42.5568520  11.7391400  24.5815330  36.9908110   4.6171900
  24.8787660  37.8970940   4.5363920  25.1300890  36.5026890   4.0031470
  24.7752860  42.4679930  11.1523820  24.6796460  41.5274660  11.0024220
  25.6184840  42.6895000  10.7571890  19.9063400  38.8793600   9.3057600
  19.5126790  39.7268810   9.5130380  19.2181800  38.2419970   9.4966240
  26.4808450  38.9628570  12.3754340  25.7906770  38.7700770  13.0100430
  27.2240750  39.2463210  12.9078640  17.2080450  36.8022060   3.3387680
  16.9193500  37.3724920   4.0512660  17.9526210  36.3226510   3.7018910
  28.7571420  42.8027010   5.2108260  28.0252540  43.3113820   5.5598360
  28.3595760  41.9856990   4.9097040  25.1948810  39.4781210   3.6160750
  25.1984870  39.0371160   2.7665290  26.0899930  39.7998540   3.7232570
  21.0451190  39.3607700   2.5754960  20.7051240  39.8382930   3.3322010
  20.2828510  38.9072820   2.2156060  29.2197330  38.2560690   4.6231200
  29.2370070  38.7069340   5.4673050  28.9712910  37.3566330   4.8364640
  32.6468080  35.6692870  10.4617580  32.9713850  34.9382530  10.9875560
  32.6824590  35.3506510   9.5598570  19.3459640  46.6906450   9.8817540
  18.9614430  46.0500120  10.4800500  19.6571830  47.3942570  10.4512270
  25.4956780  43.5382990   5.3626160  25.8626910  43.0641560   6.1087500
  25.3061840  44.4124560   5.7034500  23.2856150  42.5791630   7.6810370
  22.9813220  43.4583610   7.9060730  24.2402610  42.6391420   7.7167810
  32.5725920  45.7817980   4.0703610  33.2925040  46.2773270   3.6799720
  32.3707740  45.1035870   3.4257480  27.9544720  45.8527040   9.9572610
  27.8882030  44.9322710   9.7030200  27.3249860  45.9502480  10.6717250
  21.8575340  46.4533000   1.9156030  22.3754010  45.6501260   1.8612920
  21.4059360  46.3912140   2.7572860  19.3419880  43.4194370   8.8281730
  18.9834820  44.0848220   9.4155070  19.0474440  42.5877920   9.1994350
  22.5433000  43.8778610  11.7121280  22.2433140  44.0235790  10.8149100
  23.3144240  43.3183900  11.6194670  27.8861450  48.6747610   9.7076410
  27.9005990  47.7428570   9.4895320  27.1786550  48.7607370  10.3466180
  34.0972660  45.3154950   9.0544990  33.3720850  45.9083730   8.8574380
  34.6248120  45.3078490   8.2558360  29.6272250  47.0415120   2.5528840
  29.9796070  46.4443250   1.8930210  28.7434580  46.7159350   2.7237090
  27.3195350  50.3165180   6.8016910  27.9637570  50.5224560   7.4790330
  27.6824790  49.5553580   6.3487760  28.5927430  48.3197530   5.5194360
  29.2349660  47.6190690   5.6326530  29.1176780  49.0995970   5.3391250
  30.3665050  49.1192430   8.7230420  30.7021290  49.7059120   9.4008340
  29.4465390  48.9885140   8.9528210  17.9168450  36.9087610   9.5053830
  17.2026970  37.1084530  10.1106440  18.3363490  36.1327180   9.8768630
  18.2041040  50.8967870  10.4920360  18.3132160  49.9562610  10.3515750
  17.5521600  51.1622620   9.8434090  26.1953630  49.1683760  11.8918480
  25.8750500  48.4493000  12.4364170  25.5211990  49.8438830  11.9654540
  29.4107230  39.4009920   7.2555280  29.7788050  38.5805130   7.5834850
  28.5505430  39.4611810   7.6710930  26.3709220  42.0549510   7.4793250
  26.8694470  42.5295330   8.1445100  26.5132170  41.1313030   7.6863280
  33.5776080  38.2717470   8.3221640  33.0749680  39.0122870   8.6615450
  34.3932740  38.6601470   8.0058430  31.8698090  43.5150650   1.7683000
  30.9288230  43.5300880   1.9430690  32.1842160  42.7286610   2.2143300
  33.8723670  50.6859500   3.4437260  33.9971090  51.5090670   3.9161070
  34.7389230  50.4750230   3.0961410  21.3441200  52.7790710   3.1154390
  22.0803680  52.2306170   3.3862960  21.7282120  53.6446720   2.9760380
  20.3499480  51.9636780  12.3039970  21.1512210  52.2848830  12.7175370
  19.8351300  51.6032360  13.0259880  29.1864110  48.0716650  12.2515380
  28.5802270  48.0948250  11.5111130  28.8818220  47.3399690  12.7882630
  30.6164480  51.7996940  10.8624790  31.5686230  51.7154960  10.8125030
  30.4692700  52.4638650  11.5358580  18.0697290  44.4510240  11.2476020
  18.5736310  43.8717520  11.8192250  17.3304710  44.7350470  11.7852390
  25.1235230  45.8581230  10.7811540  24.3580900  46.4266230  10.6966210
  25.3051190  45.5657440   9.8879770  32.2658580  47.5886560  11.3386560
  33.0068050  47.9262320  10.8354020  31.5031260  47.7578620  10.7856330
  20.1020370  42.5939830  12.1426090  20.1425710  42.2953700  13.0511320
  20.9565870  42.9947440  11.9833610  22.0426180  41.1731930  10.1100580
  21.5122640  40.6822880   9.4823920  22.7114250  41.6016130   9.5758510
  30.9404240  45.6401390   9.8741770  31.3545260  45.7946470  10.7232190
  30.0055240  45.7656610  10.0367550  31.4126410  42.9797550  11.8780920
  31.9947180  42.2249870  11.7901400  31.5888180  43.5104990  11.1012400
  22.5298480  38.1394300  10.1897870  22.4355350  37.5215050   9.4648740
  21.9495870  38.8660590   9.9627780  25.2959920  36.6967540   7.2225260
  24.8477220  36.7191800   6.3770810  24.6625120  36.2986560   7.8195560
  25.7019470  45.5921870   7.8437700  26.1207580  46.4354600   7.6713940
  24.7828100  45.7293910   7.6144480  28.0383370  43.3238050   9.2275540
  28.1579580  42.7279190   9.9670380  28.8977370  43.3607740   8.8076840
  30.3771270  43.8775240   7.8038050  29.8506490  44.4017860   7.2003190
  30.7202610  44.5102630   8.4347780  23.5526890  51.8974880   8.9595430
  23.0147980  52.6220940   8.6404130  23.8060850  51.4205220   8.1692770
  24.8052140  39.8659400  10.4851360  25.3951830  39.5575250  11.1729180
  23.9872380  39.3939150  10.6411260  29.6245570  39.4825210  10.7184380
  28.9361090  38.8206750  10.6534370  30.3451590  39.0363480  11.1632840
  26.4089100  53.1326090   9.2182080  26.3347800  54.0361230   9.5254450
  25.5067940  52.8137990   9.1904150  17.8116390  50.4600680   2.5215700
  18.1419400  49.5921740   2.2894340  18.2407390  50.6659200   3.3520660
  18.3006600  51.3271270   5.2597330  17.8637590  51.5072070   6.0921480
  18.8684280  52.0845890   5.1179050  33.9368780  50.8288270   9.5474640
  33.3370770  50.8880830   8.8038560  34.0662680  49.8893250   9.6771490
  35.6386660  46.1703670   2.2320480  36.0095490  45.3870990   1.8256450
  36.2788590  46.8592770   2.0537780  32.6220420  47.5540250   7.6450800
  31.8080260  47.9837410   7.9076590  33.0294620  48.1658660   7.0319850
  19.1706960  44.2244070   6.1589550  19.5380000  44.1371470   7.0385570
  18.6017780  43.4610620   6.0596410  33.9710820  42.6928450   9.1720020
  33.7396910  42.4641200   8.2717970  34.2315370  43.6128000   9.1264910
  18.7222960  41.1353160  10.0647970  17.8279010  41.1019920  10.4041680
  19.2620510  41.3339950  10.8299220  32.4098890  37.9184880  11.9499720
  33.2869070  37.9268280  12.3333720  32.4219730  37.1815720  11.3392070
  33.8562160  41.7714420   2.8387740  34.3799640  41.2777070   2.2077910
  34.4421580  41.9064780   3.5835310  34.0351880  41.8554290   6.3607290
  33.0854590  41.8217830   6.4752280  34.2164890  42.7654400   6.1257060
  19.2262670  35.4101490   4.4131190  19.8738860  34.8598870   3.9726350
  19.6464510  35.6644640   5.2347000  33.1215010  35.6042850   7.7700830
  33.7587230  36.2176990   8.1360020  33.2689900  35.6403510   6.8250060
  18.9794670  35.5657160   7.1556510  18.6309490  36.0220980   7.9214690
  18.6482370  34.6714290   7.2378940  20.5859040  48.7376760  11.3209700
  20.5428670  48.3669670  12.2024160  20.7170050  49.6754330  11.4611520
  24.2865070  50.2936350   6.9219420  24.0456430  50.5610910   6.0349940
  25.2267710  50.4642080   6.9770280  26.4919490  36.7569040  10.6775930
  26.4308380  37.3490870  11.4271340  27.4319870  36.6495000  10.5326190
  29.1294050  36.4139100  10.3168220  29.7434460  36.7318390   9.6549300
  29.6743610  35.9287690  10.9364080  35.5469230  52.3130730   7.7230060
  35.0527510  52.7099600   7.0057190  34.9382520  51.6879940   8.1167340
  19.6515310  35.0933360  10.4307280  20.1998300  34.9121410   9.6673390
  19.7170620  34.3027470  10.9663590  20.4247070  51.6839010   8.4407480
  19.8307390  51.5523710   9.1797520  20.4170910  50.8477150   7.9749580
  29.8702090  34.9771240   6.6437510  28.9961930  35.3106350   6.4410440
  29.7612840  34.5044420   7.4689380  30.7774070  37.1842110   8.0279230
  30.4487430  36.3693870   7.6480960  31.7256370  37.1411920   7.9044920
  33.2308680  52.9554150   5.0016800  32.7711650  53.7069960   4.6274820
  32.6021140  52.2360620   4.9431600  20.0559300  49.0497390   7.3915520
  19.3293360  48.4302680   7.3241470  20.1168450  49.4438000   6.5213600
  23.6604400  51.2642390   4.1764930  24.1769420  50.6529750   3.6513190
  24.3101780  51.7671170   4.6675940  26.3999900  52.1550880   5.0033910
  26.6877710  51.9005180   4.1266920  26.9123120  51.6028240   5.5939480
  27.6176910  35.8941080   5.5830420  26.8348700  36.3686580   5.8627180
  27.3239840  34.9895910   5.4743600  32.1697980  36.5964180   3.6279510
  32.6106070  36.5409280   2.7801110  31.9005570  37.5122190   3.6989690
  30.0056110  34.9770280   2.3329520  30.6085480  35.5490490   2.8078040
  29.2649100  35.5409720   2.1103420  26.4672260  53.0766980  12.3702110
  27.3939570  52.8411250  12.4138070  26.4522690  53.9038980  11.8888140
  23.6535870  35.7411730  12.1343990  23.3720140  36.2445330  11.3704810
  24.0355570  34.9433480  11.7686120  30.2551330  35.1565310  12.7124460
  30.1416780  35.4759920  13.6075980  31.0721070  35.5577820  12.4161740
  33.0349820  52.3036840  12.1943150  33.8275140  51.8086070  11.9869110
  33.3282970  52.9826980  12.8018760  29.1609480  24.4014290  58.1733160
  29.0803530  23.4868900  57.9024870  28.7473900  24.8981360  57.4672870
  27.2927520  26.1793310  60.0542430  26.5169620  25.6993750  60.3441000
  27.9440450  25.4998960  59.8798590  31.3134950  30.5853500  58.8341560
  30.8516480  29.8140740  59.1628730  32.1260500  30.6119570  59.3394010
  21.2894610  30.5253210  61.1276210  21.5922650  29.6350950  60.9486430
  22.0338200  31.0823430  60.8998460  19.7185300  21.4515010  54.7160580
  18.8302000  21.7930980  54.6140460  20.0026490  21.2515330  53.8241410
  17.6818310  24.0520660  60.6000280  18.2534420  23.2842860  60.6003920
  17.6819850  24.3509420  59.6906890  27.5398260  32.8711510  58.4545550
  26.9209700  33.3269010  57.8839990  28.3950040  33.0262970  58.0535250
  26.7336510  28.8550500  60.0612590  26.6644790  27.9140440  59.9001720
  27.4956370  28.9451910  60.6335160  27.7641680  21.6620880  60.2881520
  28.1406500  20.7892760  60.1755190  27.6661190  21.9979580  59.3971960
  21.8946690  20.0346510  55.7498960  22.0013440  20.9350240  56.0567720
  20.9839050  19.9864480  55.4593610  31.5465800  19.1571320  57.2209860
  32.3675420  18.6667890  57.2635340  31.5799880  19.7468980  57.9741700
  23.7354420  23.0032880  60.0824140  24.2432640  23.5013850  60.7229160
  24.2667660  22.2268080  59.9063500  28.4061610  27.7550750  55.8477460
  27.7878880  28.2200200  55.2840180  28.9184860  28.4478230  56.2646970
  31.7827280  21.0971700  59.9937400  31.0782850  21.3856590  60.5740510
  32.1439440  21.9071810  59.6336960  17.7744810  28.4407280  53.2217090
  17.3972790  28.9294380  52.4901990  18.0317880  29.1132560  53.8523620
  34.8514200  20.5426490  60.3846610  33.9039110  20.5765470  60.5162040
  35.1764190  21.3565440  60.7695970  25.3833740  16.8423670  58.6802600
  25.6908720  16.2870560  57.9638100  24.4534440  16.9768130  58.4975590
  30.9348800  32.5590960  60.9710060  30.9475960  32.1553250  60.1032320
  30.3824020  33.3338250  60.8671490  32.2294220  29.2807180  56.0600230
  32.1190550  28.3381510  56.1849650  32.2262470  29.6422820  56.9462990
  27.7714500  24.9072500  55.4162720  26.8443780  24.8409880  55.6451190
  27.9239320  25.8452630  55.3017960  27.7583580  21.1789500  52.4129880
  26.8187250  21.3403460  52.4982340  28.0766840  21.8975180  51.8665870
  31.8011790  26.4692800  55.9197970  31.1824210  26.1312350  55.2724270
  31.7836240  25.8252560  56.6277160  23.3771140  25.4337240  58.1982450
  22.9728140  24.7214490  57.7028350  23.4634260  25.0890480  59.0870490
  23.8452840  29.1204800  60.3621660  23.5481130  28.5150270  59.6829440
  24.7952660  29.1582110  60.2511020  29.9776490  25.7079610  52.9270720
  30.4169770  24.8702040  52.7808540  30.6904910  26.3409010  53.0134860
  28.0871870  30.6475680  56.8951960  28.5267780  31.3900010  56.4807350
  28.0258760  30.8902250  57.8190920  33.5593630  16.9622420  51.2411760
  33.2466290  17.0549250  52.1410830  34.3206100  17.5403450  51.1909190
  20.0775770  24.3282220  55.6989100  19.9573370  25.0544310  55.0870370
  19.7676660  23.5585130  55.2217010  18.9608770  29.1997550  57.9163920
  18.5536850  29.3412140  57.0617520  19.8521780  28.9157710  57.7135130
  30.7542050  33.6344800  54.2514970  30.5943190  33.3447740  55.1496800
  30.5888760  32.8584930  53.7160200  23.2330430  33.4143330  56.0286590
  23.0572910  32.4978870  55.8154390  22.3786170  33.7730620  56.2684390
  30.4568180  31.1432360  52.8112970  29.7633340  31.1409650  52.1515250
  31.1991040  30.7191680  52.3807140  30.0218110  32.7695070  56.8861460
  30.4775060  31.9884450  57.2000080  30.3610630  33.4801890  57.4302640
  22.5439430  17.6717290  59.0812770  22.1007580  18.4526830  58.7497290
  23.1024420  17.9947180  59.7883710  25.6598250  17.2927990  53.9618600
  25.0352430  17.2887860  54.6871910  25.5728370  16.4258950  53.5654570
  24.5815330  18.2164620  60.9402370  24.8787660  19.1227450  60.8594390
  25.1300890  17.7283400  60.3261940  22.3353650  22.7950860  56.8094020
  22.1094570  22.5788030  57.7140640  21.5546180  23.2279320  56.4639990
  29.5651410  22.8014230  55.4084670  28.9660300  23.5250030  55.2248290
  30.1131020  22.7391010  54.6261120  28.1716280  21.4377770  57.4387950
  28.5645850  21.7549970  56.6256640  28.5333130  20.5589650  57.5532470
  17.2080450  18.0278570  59.6618150  16.9193500  18.5981430  60.3743130
  17.9526210  17.5483020  60.0249380  17.3950680  21.9698690  50.8720870
  17.3125350  22.9129450  51.0135860  17.0433740  21.8273600  49.9933220
  25.1948810  20.7037720  59.9391220  25.1984870  20.2627670  59.0895760
  26.0899930  21.0255050  60.0463040  21.0451190  20.5864210  58.8985430
  20.7051240  21.0639440  59.6552480  20.2828510  20.1329330  58.5386530
  25.2568960  21.7049800  52.9297980  25.3781780  21.6636280  53.8783800
  24.8717470  22.5673950  52.7744710  24.2690460  24.0150940  52.3281280
  23.7007360  23.5669190  51.7017190  24.9779460  24.3743720  51.7946430
  18.3597270  19.5083190  57.8150100  18.0744190  19.1438860  58.6528720
  18.2976130  18.7763650  57.2013240  21.8137940  28.0109130  54.6007690
  21.0400200  27.4706750  54.4406410  22.5432570  27.4915740  54.2625450
  32.5725920  27.0074490  60.3934080  33.2925040  27.5029780  60.0030190
  32.3707740  26.3292380  59.7487950  28.0335860  18.4012450  54.5363470
  27.2200470  17.9025620  54.4608780  27.8397810  19.2410700  54.1199820
  30.7484250  22.7732100  52.8325630  31.6363870  23.0849330  52.6576970
  30.7189340  21.9004350  52.4406210  21.8575340  27.6789510  58.2386500
  22.3754010  26.8757770  58.1843390  21.4059360  27.6168650  59.0803330
  26.7444840  28.9455790  53.5113800  27.0860540  29.6898020  53.0157120
  25.9157550  29.2586910  53.8738630  33.0198520  24.0843940  52.3005490
  32.9362240  24.5158160  51.4501930  33.7392710  24.5442290  52.7332310
  34.0485770  30.9386200  55.0287620  33.4061930  30.2841820  55.3031340
  33.6616430  31.3441290  54.2528290  29.6272250  28.2671630  58.8759310
  29.9796070  27.6699760  58.2160680  28.7434580  27.9415860  59.0467560
  25.7135530  29.0269320  56.2829720  26.4006660  29.5738530  56.6637310
  24.9267950  29.5710050  56.3179330  17.8527930  24.6442140  51.7746800
  18.7222780  24.9266940  52.0582720  17.3618250  25.4578010  51.6595610
  25.0162740  26.0315350  55.8955080  25.4725520  26.8420600  56.1215270
  24.6650950  25.7138490  56.7273570  20.9174520  16.3753000  56.3677600
  20.7889150  16.3670900  57.3162520  20.0936540  16.7136090  56.0168610
  32.4383150  29.8302660  51.5663970  32.2120730  29.1133100  52.1588610
  32.0479350  29.5815100  50.7285720  18.2199180  33.8569520  52.3408430
  18.5796820  34.4558860  51.6865700  18.0791520  34.4029410  53.1143460
  32.0199400  27.7474600  53.2278130  31.7321100  28.2087290  54.0156010
  32.8151570  27.2872370  53.4962350  24.2367800  31.2400720  53.1582100
  24.2277900  31.9730410  52.5426610  23.3166160  30.9932300  53.2509060
  19.8374440  26.4615610  53.9028860  19.2302390  27.2014510  53.9124160
  20.3123790  26.5514970  53.0767060  32.7769260  19.5823370  54.3873310
  32.1482420  19.6869040  53.6731540  32.2821180  19.8020150  55.1767190
  27.2227400  31.3028960  51.8207290  27.3239380  31.0992950  50.8909270
  26.3229140  31.0487240  52.0255070  24.7453290  21.8609320  55.8031190
  24.0369440  22.3295660  56.2444800  25.0297770  21.2031330  56.4376380
  28.7768720  18.5859980  57.2426980  28.6536500  18.6046110  56.2936490
  29.7253280  18.6338920  57.3625380  25.8645510  33.8215280  56.5154960
  26.1187010  33.7836670  55.5934330  24.9157990  33.6948610  56.5083210
  22.9488310  20.1694400  53.1781900  23.7978840  20.6064550  53.1122090
  22.5819580  20.4814660  54.0053960  31.8698090  24.7407160  58.0913470
  30.9288230  24.7557390  58.2661160  32.1842160  23.9543120  58.5373770
  21.8479730  26.4226760  51.6517430  22.6143000  26.3108120  52.2142860
  21.9254420  25.7264730  50.9994200  20.5426490  23.8551830  52.3350320
  20.6230080  22.9079340  52.4467720  21.4346240  24.1858710  52.4410980
  33.8723670  31.9116010  59.7667730  33.9971090  32.7347180  60.2391540
  34.7389230  31.7006740  59.4191880  21.3441200  34.0047220  59.4384860
  22.0803680  33.4562680  59.7093430  21.7282120  34.8703230  59.2990850
  18.2286680  30.0720790  55.3126370  17.3026460  30.3141930  55.3031780
  18.6943110  30.8995050  55.1911120  24.4543510  33.1777530  51.2610430
  25.2472120  33.4666360  50.8092220  23.9347860  32.7469700  50.5822910
  33.5073680  32.4047660  52.6847170  33.2215190  31.9912800  51.8701350
  33.3093230  33.3335370  52.5647690  24.9720910  28.3980940  51.1252780
  24.8671550  27.7833290  51.8514160  24.8045130  27.8746830  50.3415790
  28.2123640  27.4600970  51.7294770  27.6633740  27.9070270  52.3737510
  28.8342900  26.9550220  52.2532440  23.8798760  26.4191890  53.6260070
  24.3015180  26.2531760  54.4691460  24.0049600  25.6092120  53.1315210
  26.3926400  25.4429500  50.8737170  26.9132060  24.7278520  50.5078320
  27.0394800  26.0815370  51.1737680  22.7757660  22.4925120  50.5718230
  22.5746720  21.6292480  50.9331570  22.6049710  22.4058480  49.6339830
  30.2545970  17.3033350  53.1005110  30.5348260  16.4601250  53.4564530
  29.4811700  17.5356460  53.6143860  21.5740460  19.5925740  50.5596110
  21.8766360  19.5993170  49.6515260  22.3135050  19.2423600  51.0563770
  24.7925390  18.5360360  51.5452310  24.4447390  17.8584350  50.9654760
  24.9938160  18.0749870  52.3595700  26.9574430  33.5241110  53.1638910
  27.8525220  33.8626080  53.1857670  26.9892060  32.8020520  52.5363190
  20.5970590  28.8968160  51.3925910  21.0345460  29.4397830  52.0483490
  21.0818320  28.0715110  51.4022250  17.8116390  31.6857190  58.8446170
  18.1419400  30.8178250  58.6124810  18.2407390  31.8915710  59.6751130
  22.4078310  30.0166200  56.5048140  22.1073850  29.8931170  57.4052050
  22.3015800  29.1574790  56.0963870  35.1770230  29.7962600  51.2074820
  34.3463190  29.8639250  51.6782050  35.3542060  30.6866720  50.9041680
  34.6326690  26.5410080  53.7109020  35.3945600  27.1106730  53.8168710
  34.6481060  25.9737280  54.4817330  18.1331030  25.0648010  57.9416680
  17.4779870  24.7959650  57.2976380  18.9708980  24.9552490  57.4918660
  35.6386660  27.3960180  58.5550950  36.0095490  26.6127500  58.1486920
  36.2788590  28.0849280  58.3768250  34.6845860  26.8344450  50.8681540
  34.9594700  27.7423330  50.7400760  34.4956600  26.7706980  51.8043530
  31.0821470  19.8589300  52.1635170  31.5006350  19.6720280  51.3231830
  30.7757530  19.0068350  52.4738100  34.5811200  24.7713440  55.8610970
  34.2054800  24.0041370  55.4292260  33.8514320  25.1536140  56.3485900
  17.3469110  22.2746940  53.8842010  16.4433190  22.5377140  53.7093670
  17.8309730  22.5458110  53.1041970  33.8562160  22.9970930  59.1618210
  34.3799640  22.5033580  58.5308380  34.4421580  23.1321290  59.9065780
  19.8896320  21.3312480  51.7936390  20.5988020  20.9095700  51.3083670
  19.1736260  21.3987710  51.1619740  19.5370480  17.3851810  50.8339040
  20.2598610  17.9260750  51.1520260  19.8095000  17.1115230  49.9580580
  33.3462130  22.2544280  55.1010620  33.8421250  22.0215150  55.8859500
  33.1478200  21.4156120  54.6848260  34.7749290  20.8905230  57.6348300
  34.6648570  20.7361270  58.5730570  35.5356880  20.3626170  57.3923710
  35.6639560  18.7213150  50.8754440  36.5888870  18.5894330  50.6672730
  35.6415350  18.8005970  51.8290890  35.7378050  19.4923810  53.5011150
  34.9429550  19.4268930  54.0304060  35.9421330  20.4274450  53.4896500
  32.6796470  33.5315360  57.4949540  33.2755540  33.2099930  56.8183960
  32.9374620  33.0587180  58.2862810  33.2308680  34.1810660  61.3247270
  32.7711650  34.9326470  60.9505290  32.6021140  33.4617130  61.2662070
  23.6604400  32.4898900  60.4995400  24.1769420  31.8786260  59.9743660
  24.3101780  32.9927680  60.9906410  32.1697980  17.8220690  59.9509980
  32.6106070  17.7665790  59.1031580  31.9005570  18.7378700  60.0220160
  34.0336550  17.4535930  57.9618800  33.9724950  16.5097150  57.8149820
  34.8128580  17.5616020  58.5072260  18.3389300  33.5928290  56.9242750
  18.1711340  32.9598970  57.6224640  17.4723810  33.7987690  56.5736940
  18.9617320  17.4245070  54.4274610  19.7196680  17.5373950  53.8538640
  18.4994490  18.2614270  54.3818040  25.5031130  19.5384340  57.4176920
  24.6905640  19.1641230  57.0772800  26.0072770  18.7829420  57.7198110
  30.0056110  16.2026790  58.6559990  30.6085480  16.7747000  59.1308510
  29.2649100  16.7666230  58.4333890  33.1490710  16.6048350  53.9300270
  33.3441340  17.5031800  54.1967700  32.3620580  16.3735430  54.4233220
  19.9452000  32.2861520  54.3692890  19.4199620  32.6669550  53.6654850
  19.8696580  32.9112290  55.0902600  21.3342470  17.9509120  52.9676580
  21.8635230  17.1638920  52.8384530  21.9670790  18.6300310  53.2012110
  23.5280310  17.6884260  56.0221970  22.8983050  16.9871570  56.1892100
  22.9885450  18.4488390  55.8055130  34.7017320  33.8449060  55.6906830
  34.8769510  33.1586800  55.0467750  34.0038890  34.3696110  55.2983500
  22.5444970  34.2343900  53.2442140  23.2763790  33.9503180  52.6966030
  22.8038640  33.9957180  54.1341520  21.7059760  30.3508630  53.2488470
  21.0768640  30.8193730  53.7974300  21.8207590  29.5057850  53.6834660
  29.1609480  24.4014290  39.3989670  29.0803530  23.4868900  39.1281380
  28.7473900  24.8981360  38.6929380  27.2927520  26.1793310  41.2798940
  26.5169620  25.6993750  41.5697510  27.9440450  25.4998960  41.1055100
  21.3093350  26.4913120  42.1574700  20.4778230  26.2361830  42.5571210
  21.9174330  26.5623890  42.8932620  31.3134950  30.5853500  40.0598070
  30.8516480  29.8140740  40.3885240  32.1260500  30.6119570  40.5650520
  21.2894610  30.5253210  42.3532720  21.5922650  29.6350950  42.1742940
  22.0338200  31.0823430  42.1254970  19.7185300  21.4515010  35.9417090
  18.8302000  21.7930980  35.8396970  20.0026490  21.2515330  35.0497920
  17.6818310  24.0520660  41.8256790  18.2534420  23.2842860  41.8260430
  17.6819850  24.3509420  40.9163400  27.5398260  32.8711510  39.6802060
  26.9209700  33.3269010  39.1096500  28.3950040  33.0262970  39.2791760
  26.7336510  28.8550500  41.2869100  26.6644790  27.9140440  41.1258230
  27.4956370  28.9451910  41.8591670  18.9243180  19.4605020  43.6125720
  18.7446020  18.5630770  43.8928480  18.5223260  20.0076890  44.2872670
  27.7641680  21.6620880  41.5138030  28.1406500  20.7892760  41.4011700
  27.6661190  21.9979580  40.6228470  21.8946690  20.0346510  36.9755470
  22.0013440  20.9350240  37.2824230  20.9839050  19.9864480  36.6850120
  31.5465800  19.1571320  38.4466370  32.3675420  18.6667890  38.4891850
  31.5799880  19.7468980  39.1998210  19.5429850  21.9565520  42.2208060
  20.2239960  22.2203890  42.8395460  19.2277900  21.1166390  42.5546070
  23.7354420  23.0032880  41.3080650  24.2432640  23.5013850  41.9485670
  24.2667660  22.2268080  41.1320010  35.8365350  21.1738070  45.0110000
  35.1317520  21.5619780  44.4925110  36.1023270  21.8688360  45.6130930
  22.0190520  17.6431440  45.5744070  22.0208960  18.1603830  44.7689970
  21.1894830  17.1661620  45.5514000  28.4061610  27.7550750  37.0733970
  27.7878880  28.2200200  36.5096690  28.9184860  28.4478230  37.4903480
  23.2693370  27.2826620  43.7517570  22.9362750  27.9095540  44.3938640
  23.4460050  27.8088500  42.9719240  31.7827280  21.0971700  41.2193910
  31.0782850  21.3856590  41.7997020  32.1439440  21.9071810  40.8593470
  21.7005850  19.3541400  43.5814520  22.0422660  20.1983450  43.2868390
  20.7621660  19.5025140  43.6979860  22.4812470  29.2507420  45.5666750
  23.0986470  29.9258500  45.2851200  21.6205590  29.6595400  45.4754250
  17.7744810  28.4407280  34.4473600  17.3972790  28.9294380  33.7158500
  18.0317880  29.1132560  35.0780130  33.3990060  30.7146830  43.4821390
  32.7153580  31.3845940  43.4738060  33.9384350  30.9127480  42.7166250
  34.8514200  20.5426490  41.6103120  33.9039110  20.5765470  41.7418550
  35.1764190  21.3565440  41.9952480  25.3833740  16.8423670  39.9059110
  25.6908720  16.2870560  39.1894610  24.4534440  16.9768130  39.7232100
  30.9348800  32.5590960  42.1966570  30.9475960  32.1553250  41.3288830
  30.3824020  33.3338250  42.0928000  32.2294220  29.2807180  37.2856740
  32.1190550  28.3381510  37.4106160  32.2262470  29.6422820  38.1719500
  30.3334240  27.4620800  43.5249180  30.7503030  27.2480910  42.6902640
  31.0574060  27.7193590  44.0957800  27.7714500  24.9072500  36.6419230
  26.8443780  24.8409880  36.8707700  27.9239320  25.8452630  36.5274470
  27.7583580  21.1789500  33.6386390  26.8187250  21.3403460  33.7238850
  28.0766840  21.8975180  33.0922380  34.2796340  25.8608020  43.6165420
  33.4514970  25.9301110  43.1415550  34.8746820  26.4462330  43.1481250
  31.8011790  26.4692800  37.1454480  31.1824210  26.1312350  36.4980780
  31.7836240  25.8252560  37.8533670  31.2438350  22.6477340  44.5620290
  30.8309530  23.4731050  44.8160280  30.5114300  22.0622380  44.3696650
  23.3771140  25.4337240  39.4238960  22.9728140  24.7214490  38.9284860
  23.4634260  25.0890480  40.3127000  23.8452840  29.1204800  41.5878170
  23.5481130  28.5150270  40.9085950  24.7952660  29.1582110  41.4767530
  22.0899760  22.2080450  43.2038000  22.6414350  22.3175790  42.4291250
  22.6043270  22.5818050  43.9193230  31.9338450  32.6936670  45.2501270
  31.4569010  33.5008860  45.0573880  31.2500240  32.0415000  45.4027480
  22.9371270  28.8586490  48.2385970  22.0399800  29.0826460  48.4859370
  22.9624140  28.9821430  47.2897370  29.9776490  25.7079610  34.1527230
  30.4169770  24.8702040  34.0065050  30.6904910  26.3409010  34.2391370
  21.7642490  25.7299810  46.8143340  21.6250260  26.6022610  47.1830740
  20.8823850  25.3872620  46.6691280  28.0871870  30.6475680  38.1208470
  28.5267780  31.3900010  37.7063860  28.0258760  30.8902250  39.0447430
  23.5622840  31.6721510  49.0228490  23.5338270  32.0764460  48.1556920
  23.3987810  30.7431870  48.8600090  33.5593630  16.9622420  32.4668270
  33.2466290  17.0549250  33.3667340  34.3206100  17.5403450  32.4165700
  20.0775770  24.3282220  36.9245610  19.9573370  25.0544310  36.3126880
  19.7676660  23.5585130  36.4473520  35.5137660  32.4548610  50.3192660
  35.9897380  32.9331500  50.9981740  36.1344820  32.3866100  49.5938160
  17.7161140  27.4997360  42.7314250  17.7941560  27.6346130  41.7869970
  18.3302820  26.7913250  42.9242370  18.9608770  29.1997550  39.1420430
  18.5536850  29.3412140  38.2874030  19.8521780  28.9157710  38.9391640
  34.9170910  29.6461460  47.4792670  35.0433970  29.4073340  46.5609850
  34.9592290  28.8146000  47.9514750  28.7787650  33.3489460  46.0487480
  29.2932320  33.2597470  46.8509910  27.9356730  33.6949160  46.3415390
  30.7542050  33.6344800  35.4771480  30.5943190  33.3447740  36.3753310
  30.5888760  32.8584930  34.9416710  23.2330430  33.4143330  37.2543100
  23.0572910  32.4978870  37.0410900  22.3786170  33.7730620  37.4940900
  30.4568180  31.1432360  34.0369480  29.7633340  31.1409650  33.3771760
  31.1991040  30.7191680  33.6063650  30.0218110  32.7695070  38.1117970
  30.4775060  31.9884450  38.4256590  30.3610630  33.4801890  38.6559150
  34.7694920  21.6993920  48.4442410  34.1539190  22.2073590  47.9157870
  34.4491340  20.7992250  48.3868350  17.7720660  28.5411530  45.2708710
  17.9351700  28.0716890  44.4528080  18.2373110  28.0335090  45.9357550
  22.5439430  17.6717290  40.3069280  22.1007580  18.4526830  39.9753800
  23.1024420  17.9947180  41.0140220  26.8309240  20.5385810  45.9104600
  26.3688610  20.7468830  46.7224540  26.4287350  19.7245160  45.6075270
  31.8313750  21.7594760  47.0401260  30.9807340  21.4600510  47.3610330
  31.6715540  22.0036770  46.1285080  28.9263460  23.2596510  49.1400050
  29.2516870  22.4260260  48.8002280  29.7143790  23.7825030  49.2878380
  25.6598250  17.2927990  35.1875110  25.0352430  17.2887860  35.9128420
  25.5728370  16.4258950  34.7911080  24.5815330  18.2164620  42.1658880
  24.8787660  19.1227450  42.0850900  25.1300890  17.7283400  41.5518450
  22.3353650  22.7950860  38.0350530  22.1094570  22.5788030  38.9397150
  21.5546180  23.2279320  37.6896500  29.5651410  22.8014230  36.6341180
  28.9660300  23.5250030  36.4504800  30.1131020  22.7391010  35.8517630
  24.7752860  23.6936440  48.7010800  24.6796460  22.7531170  48.5511200
  25.6184840  23.9151510  48.3058870  28.1716280  21.4377770  38.6644460
  28.5645850  21.7549970  37.8513150  28.5333130  20.5589650  38.7788980
  19.9063400  20.1050110  46.8544580  19.5126790  20.9525320  47.0617360
  19.2181800  19.4676480  47.0453220  26.4808450  20.1885080  49.9241320
  25.7906770  19.9957280  50.5587410  27.2240750  20.4719720  50.4565620
  17.2080450  18.0278570  40.8874660  16.9193500  18.5981430  41.5999640
  17.9526210  17.5483020  41.2505890  17.3950680  21.9698690  32.0977380
  17.3125350  22.9129450  32.2392370  17.0433740  21.8273600  31.2189730
  28.7571420  24.0283520  42.7595240  28.0252540  24.5370330  43.1085340
  28.3595760  23.2113500  42.4584020  25.1948810  20.7037720  41.1647730
  25.1984870  20.2627670  40.3152270  26.0899930  21.0255050  41.2719550
  21.0451190  20.5864210  40.1241940  20.7051240  21.0639440  40.8808990
  20.2828510  20.1329330  39.7643040  25.2568960  21.7049800  34.1554490
  25.3781780  21.6636280  35.1040310  24.8717470  22.5673950  34.0001220
  29.2197330  19.4817200  42.1718180  29.2370070  19.9325850  43.0160030
  28.9712910  18.5822840  42.3851620  24.2690460  24.0150940  33.5537790
  23.7007360  23.5669190  32.9273700  24.9779460  24.3743720  33.0202940
  32.6468080  16.8949380  48.0104560  32.9713850  16.1639040  48.5362540
  32.6824590  16.5763020  47.1085550  19.3459640  27.9162960  47.4304520
  18.9614430  27.2756630  48.0287480  19.6571830  28.6199080  47.9999250
  25.4956780  24.7639500  42.9113140  25.8626910  24.2898070  43.6574480
  25.3061840  25.6381070  43.2521480  18.3597270  19.5083190  39.0406610
  18.0744190  19.1438860  39.8785230  18.2976130  18.7763650  38.4269750
  23.2856150  23.8048140  45.2297350  22.9813220  24.6840120  45.4547710
  24.2402610  23.8647930  45.2654790  21.8137940  28.0109130  35.8264200
  21.0400200  27.4706750  35.6662920  22.5432570  27.4915740  35.4881960
  32.5725920  27.0074490  41.6190590  33.2925040  27.5029780  41.2286700
  32.3707740  26.3292380  40.9744460  28.0335860  18.4012450  35.7619980
  27.2200470  17.9025620  35.6865290  27.8397810  19.2410700  35.3456330
  27.9544720  27.0783550  47.5059590  27.8882030  26.1579220  47.2517180
  27.3249860  27.1758990  48.2204230  30.7484250  22.7732100  34.0582140
  31.6363870  23.0849330  33.8833480  30.7189340  21.9004350  33.6662720
  21.8575340  27.6789510  39.4643010  22.3754010  26.8757770  39.4099900
  21.4059360  27.6168650  40.3059840  26.7444840  28.9455790  34.7370310
  27.0860540  29.6898020  34.2413630  25.9157550  29.2586910  35.0995140
  19.3419880  24.6450880  46.3768710  18.9834820  25.3104730  46.9642050
  19.0474440  23.8134430  46.7481330  22.5433000  25.1035120  49.2608260
  22.2433140  25.2492300  48.3636080  23.3144240  24.5440410  49.1681650
  27.8861450  29.9004120  47.2563390  27.9005990  28.9685080  47.0382300
  27.1786550  29.9863880  47.8953160  33.0198520  24.0843940  33.5262000
  32.9362240  24.5158160  32.6758440  33.7392710  24.5442290  33.9588820
  34.0972660  26.5411460  46.6031970  33.3720850  27.1340240  46.4061360
  34.6248120  26.5335000  45.8045340  34.0485770  30.9386200  36.2544130
  33.4061930  30.2841820  36.5287850  33.6616430  31.3441290  35.4784800
  29.6272250  28.2671630  40.1015820  29.9796070  27.6699760  39.4417190
  28.7434580  27.9415860  40.2724070  25.7135530  29.0269320  37.5086230
  26.4006660  29.5738530  37.8893820  24.9267950  29.5710050  37.5435840
  17.8527930  24.6442140  33.0003310  18.7222780  24.9266940  33.2839230
  17.3618250  25.4578010  32.8852120  25.0162740  26.0315350  37.1211590
  25.4725520  26.8420600  37.3471780  24.6650950  25.7138490  37.9530080
  27.3195350  31.5421690  44.3503890  27.9637570  31.7481070  45.0277310
  27.6824790  30.7810090  43.8974740  20.9174520  16.3753000  37.5934110
  20.7889150  16.3670900  38.5419030  20.0936540  16.7136090  37.2425120
  28.5927430  29.5454040  43.0681340  29.2349660  28.8447200  43.1813510
  29.1176780  30.3252480  42.8878230  30.3665050  30.3448940  46.2717400
  30.7021290  30.9315630  46.9495320  29.4465390  30.2141650  46.5015190
  18.2199180  33.8569520  33.5664940  18.5796820  34.4558860  32.9122210
  18.0791520  34.4029410  34.3399970  17.9168450  18.1344120  47.0540810
  17.2026970  18.3341040  47.6593420  18.3363490  17.3583690  47.4255610
  32.0199400  27.7474600  34.4534640  31.7321100  28.2087290  35.2412520
  32.8151570  27.2872370  34.7218860  18.2041040  32.1224380  48.0407340
  18.3132160  31.1819120  47.9002730  17.5521600  32.3879130  47.3921070
  26.1953630  30.3940270  49.4405460  25.8750500  29.6749510  49.9851150
  25.5211990  31.0695340  49.5141520  24.2367800  31.2400720  34.3838610
  24.2277900  31.9730410  33.7683120  23.3166160  30.9932300  34.4765570
  19.8374440  26.4615610  35.1285370  19.2302390  27.2014510  35.1380670
  20.3123790  26.5514970  34.3023570  29.4107230  20.6266430  44.8042260
  29.7788050  19.8061640  45.1321830  28.5505430  20.6868320  45.2197910
  32.7769260  19.5823370  35.6129820  32.1482420  19.6869040  34.8988050
  32.2821180  19.8020150  36.4023700  27.2227400  31.3028960  33.0463800
  27.3239380  31.0992950  32.1165780  26.3229140  31.0487240  33.2511580
  24.7453290  21.8609320  37.0287700  24.0369440  22.3295660  37.4701310
  25.0297770  21.2031330  37.6632890  26.3709220  23.2806020  45.0280230
  26.8694470  23.7551840  45.6932080  26.5132170  22.3569540  45.2350260
  28.7768720  18.5859980  38.4683490  28.6536500  18.6046110  37.5193000
  29.7253280  18.6338920  38.5881890  25.8645510  33.8215280  37.7411470
  26.1187010  33.7836670  36.8190840  24.9157990  33.6948610  37.7339720
  22.9488310  20.1694400  34.4038410  23.7978840  20.6064550  34.3378600
  22.5819580  20.4814660  35.2310470  33.5776080  19.4973980  45.8708620
  33.0749680  20.2379380  46.2102430  34.3932740  19.8857980  45.5545410
  31.8698090  24.7407160  39.3169980  30.9288230  24.7557390  39.4917670
  32.1842160  23.9543120  39.7630280  21.8479730  26.4226760  32.8773940
  22.6143000  26.3108120  33.4399370  21.9254420  25.7264730  32.2250710
  20.5426490  23.8551830  33.5606830  20.6230080  22.9079340  33.6724230
  21.4346240  24.1858710  33.6667490  33.8723670  31.9116010  40.9924240
  33.9971090  32.7347180  41.4648050  34.7389230  31.7006740  40.6448390
  21.3441200  34.0047220  40.6641370  22.0803680  33.4562680  40.9349940
  21.7282120  34.8703230  40.5247360  18.2286680  30.0720790  36.5382880
  17.3026460  30.3141930  36.5288290  18.6943110  30.8995050  36.4167630
  20.3499480  33.1893290  49.8526950  21.1512210  33.5105340  50.2662350
  19.8351300  32.8288870  50.5746860  24.4543510  33.1777530  32.4866940
  25.2472120  33.4666360  32.0348730  23.9347860  32.7469700  31.8079420
  29.1864110  29.2973160  49.8002360  28.5802270  29.3204760  49.0598110
  28.8818220  28.5656200  50.3369610  30.6164480  33.0253450  48.4111770
  31.5686230  32.9411470  48.3612010  30.4692700  33.6895160  49.0845560
  18.0697290  25.6766750  48.7963000  18.5736310  25.0974030  49.3679230
  17.3304710  25.9606980  49.3339370  24.9720910  28.3980940  32.3509290
  24.8671550  27.7833290  33.0770670  24.8045130  27.8746830  31.5672300
  25.1235230  27.0837740  48.3298520  24.3580900  27.6522740  48.2453190
  25.3051190  26.7913950  47.4366750  28.2123640  27.4600970  32.9551280
  27.6633740  27.9070270  33.5994020  28.8342900  26.9550220  33.4788950
  32.2658580  28.8143070  48.8873540  33.0068050  29.1518830  48.3841000
  31.5031260  28.9835130  48.3343310  20.1020370  23.8196340  49.6913070
  20.1425710  23.5210210  50.5998300  20.9565870  24.2203950  49.5320590
  23.8798760  26.4191890  34.8516580  24.3015180  26.2531760  35.6947970
  24.0049600  25.6092120  34.3571720  22.0426180  22.3988440  47.6587560
  21.5122640  21.9079390  47.0310900  22.7114250  22.8272640  47.1245490
  26.3926400  25.4429500  32.0993680  26.9132060  24.7278520  31.7334830
  27.0394800  26.0815370  32.3994190  30.9404240  26.8657900  47.4228750
  31.3545260  27.0202980  48.2719170  30.0055240  26.9913120  47.5854530
  31.4126410  24.2054060  49.4267900  31.9947180  23.4506380  49.3388380
  31.5888180  24.7361500  48.6499380  22.5298480  19.3650810  47.7384850
  22.4355350  18.7471560  47.0135720  21.9495870  20.0917100  47.5114760
  25.2959920  17.9224050  44.7712240  24.8477220  17.9448310  43.9257790
  24.6625120  17.5243070  45.3682540  25.7019470  26.8178380  45.3924680
  26.1207580  27.6611110  45.2200920  24.7828100  26.9550420  45.1631460
  28.0383370  24.5494560  46.7762520  28.1579580  23.9535700  47.5157360
  28.8977370  24.5864250  46.3563820  30.3771270  25.1031750  45.3525030
  29.8506490  25.6274370  44.7490170  30.7202610  25.7359140  45.9834760
  22.7757660  22.4925120  31.7974740  22.5746720  21.6292480  32.1588080
  22.6049710  22.4058480  30.8596340  23.5526890  33.1231390  46.5082410
  23.0147980  33.8477450  46.1891110  23.8060850  32.6461730  45.7179750
  24.8052140  21.0915910  48.0338340  25.3951830  20.7831760  48.7216160
  23.9872380  20.6195660  48.1898240  29.6245570  20.7081720  48.2671360
  28.9361090  20.0463260  48.2021350  30.3451590  20.2619990  48.7119820
  30.2545970  17.3033350  34.3261620  30.5348260  16.4601250  34.6821040
  29.4811700  17.5356460  34.8400370  21.5740460  19.5925740  31.7852620
  21.8766360  19.5993170  30.8771770  22.3135050  19.2423600  32.2820280
  26.4089100  34.3582600  46.7669060  26.3347800  35.2617740  47.0741430
  25.5067940  34.0394500  46.7391130  24.7925390  18.5360360  32.7708820
  24.4447390  17.8584350  32.1911270  24.9938160  18.0749870  33.5852210
  26.9574430  33.5241110  34.3895420  27.8525220  33.8626080  34.4114180
  26.9892060  32.8020520  33.7619700  20.5970590  28.8968160  32.6182420
  21.0345460  29.4397830  33.2740000  21.0818320  28.0715110  32.6278760
  17.8116390  31.6857190  40.0702680  18.1419400  30.8178250  39.8381320
  18.2407390  31.8915710  40.9007640  22.4078310  30.0166200  37.7304650
  22.1073850  29.8931170  38.6308560  22.3015800  29.1574790  37.3220380
  18.3006600  32.5527780  42.8084310  17.8637590  32.7328580  43.6408460
  18.8684280  33.3102400  42.6666030  33.9368780  32.0544780  47.0961620
  33.3370770  32.1137340  46.3525540  34.0662680  31.1149760  47.2258470
  34.6326690  26.5410080  34.9365530  35.3945600  27.1106730  35.0425220
  34.6481060  25.9737280  35.7073840  18.1331030  25.0648010  39.1673190
  17.4779870  24.7959650  38.5232890  18.9708980  24.9552490  38.7175170
  35.6386660  27.3960180  39.7807460  36.0095490  26.6127500  39.3743430
  36.2788590  28.0849280  39.6024760  32.6220420  28.7796760  45.1937780
  31.8080260  29.2093920  45.4563570  33.0294620  29.3915170  44.5806830
  34.6845860  26.8344450  32.0938050  34.9594700  27.7423330  31.9657270
  34.4956600  26.7706980  33.0300040  31.0821470  19.8589300  33.3891680
  31.5006350  19.6720280  32.5488340  30.7757530  19.0068350  33.6994610
  34.5811200  24.7713440  37.0867480  34.2054800  24.0041370  36.6548770
  33.8514320  25.1536140  37.5742410  19.1706960  25.4500580  43.7076530
  19.5380000  25.3627980  44.5872550  18.6017780  24.6867130  43.6083390
  33.9710820  23.9184960  46.7207000  33.7396910  23.6897710  45.8204950
  34.2315370  24.8384510  46.6751890  18.7222960  22.3609670  47.6134950
  17.8279010  22.3276430  47.9528660  19.2620510  22.5596460  48.3786200
  32.4098890  19.1441390  49.4986700  33.2869070  19.1524790  49.8820700
  32.4219730  18.4072230  48.8879050  17.3469110  22.2746940  35.1098520
  16.4433190  22.5377140  34.9350180  17.8309730  22.5458110  34.3298480
  33.8562160  22.9970930  40.3874720  34.3799640  22.5033580  39.7564890
  34.4421580  23.1321290  41.1322290  34.0351880  23.0810800  43.9094270
  33.0854590  23.0474340  44.0239260  34.2164890  23.9910910  43.6744040
  19.8896320  21.3312480  33.0192900  20.5988020  20.9095700  32.5340180
  19.1736260  21.3987710  32.3876250  19.5370480  17.3851810  32.0595550
  20.2598610  17.9260750  32.3776770  19.8095000  17.1115230  31.1837090
  33.3462130  22.2544280  36.3267130  33.8421250  22.0215150  37.1116010
  33.1478200  21.4156120  35.9104770  19.2262670  16.6358000  41.9618170
  19.8738860  16.0855380  41.5213330  19.6464510  16.8901150  42.7833980
  34.7749290  20.8905230  38.8604810  34.6648570  20.7361270  39.7987080
  35.5356880  20.3626170  38.6180220  33.1215010  16.8299360  45.3187810
  33.7587230  17.4433500  45.6847000  33.2689900  16.8660020  44.3737040
  35.6639560  18.7213150  32.1010950  36.5888870  18.5894330  31.8929240
  35.6415350  18.8005970  33.0547400  35.7378050  19.4923810  34.7267660
  34.9429550  19.4268930  35.2560570  35.9421330  20.4274450  34.7153010
  32.6796470  33.5315360  38.7206050  33.2755540  33.2099930  38.0440470
  32.9374620  33.0587180  39.5119320  18.9794670  16.7913670  44.7043490
  18.6309490  17.2477490  45.4701670  18.6482370  15.8970800  44.7865920
  20.5859040  29.9633270  48.8696680  20.5428670  29.5926180  49.7511140
  20.7170050  30.9010840  49.0098500  24.2865070  31.5192860  44.4706400
  24.0456430  31.7867420  43.5836920  25.2267710  31.6898590  44.5257260
  26.4919490  17.9825550  48.2262910  26.4308380  18.5747380  48.9758320
  27.4319870  17.8751510  48.0813170  29.1294050  17.6395610  47.8655200
  29.7434460  17.9574900  47.2036280  29.6743610  17.1544200  48.4851060
  35.5469230  33.5387240  45.2717040  35.0527510  33.9356110  44.5544170
  34.9382520  32.9136450  45.6654320  19.6515310  16.3189870  47.9794260
  20.1998300  16.1377920  47.2160370  19.7170620  15.5283980  48.5150570
  20.4247070  32.9095520  45.9894460  19.8307390  32.7780220  46.7284500
  20.4170910  32.0733660  45.5236560  29.8702090  16.2027750  44.1924490
  28.9961930  16.5362860  43.9897420  29.7612840  15.7300930  45.0176360
  30.7774070  18.4098620  45.5766210  30.4487430  17.5950380  45.1967940
  31.7256370  18.3668430  45.4531900  33.2308680  34.1810660  42.5503780
  32.7711650  34.9326470  42.1761800  32.6021140  33.4617130  42.4918580
  20.0559300  30.2753900  44.9402500  19.3293360  29.6559190  44.8728450
  20.1168450  30.6694510  44.0700580  23.6604400  32.4898900  41.7251910
  24.1769420  31.8786260  41.2000170  24.3101780  32.9927680  42.2162920
  26.3999900  33.3807390  42.5520890  26.6877710  33.1261690  41.6753900
  26.9123120  32.8284750  43.1426460  27.6176910  17.1197590  43.1317400
  26.8348700  17.5943090  43.4114160  27.3239840  16.2152420  43.0230580
  32.1697980  17.8220690  41.1766490  32.6106070  17.7665790  40.3288090
  31.9005570  18.7378700  41.2476670  34.0336550  17.4535930  39.1875310
  33.9724950  16.5097150  39.0406330  34.8128580  17.5616020  39.7328770
  18.3389300  33.5928290  38.1499260  18.1711340  32.9598970  38.8481150
  17.4723810  33.7987690  37.7993450  18.9617320  17.4245070  35.6531120
  19.7196680  17.5373950  35.0795150  18.4994490  18.2614270  35.6074550
  25.5031130  19.5384340  38.6433430  24.6905640  19.1641230  38.3029310
  26.0072770  18.7829420  38.9454620  30.0056110  16.2026790  39.8816500
  30.6085480  16.7747000  40.3565020  29.2649100  16.7666230  39.6590400
  33.1490710  16.6048350  35.1556780  33.3441340  17.5031800  35.4224210
  32.3620580  16.3735430  35.6489730  19.9452000  32.2861520  35.5949400
  19.4199620  32.6669550  34.8911360  19.8696580  32.9112290  36.3159110
  21.3342470  17.9509120  34.1933090  21.8635230  17.1638920  34.0641040
  21.9670790  18.6300310  34.4268620  23.5280310  17.6884260  37.2478480
  22.8983050  16.9871570  37.4148610  22.9885450  18.4488390  37.0311640
  26.4672260  34.3023490  49.9189090  27.3939570  34.0667760  49.9625050
  26.4522690  35.1295490  49.4375120  34.7017320  33.8449060  36.9163340
  34.8769510  33.1586800  36.2724260  34.0038890  34.3696110  36.5240010
  23.6535870  16.9668240  49.6830970  23.3720140  17.4701840  48.9191790
  24.0355570  16.1689990  49.3173100  22.5444970  34.2343900  34.4698650
  23.2763790  33.9503180  33.9222540  22.8038640  33.9957180  35.3598030
  21.7059760  30.3508630  34.4744980  21.0768640  30.8193730  35.0230810
  21.8207590  29.5057850  34.9091170  30.2551330  16.3821820  50.2611440
  30.1416780  16.7016430  51.1562960  31.0721070  16.7834330  49.9648720
  33.0349820  33.5293350  49.7430130  33.8275140  33.0342580  49.5356090
  33.3282970  34.2083490  50.3505740  29.1609480  24.4014290  20.6246180
  29.0803530  23.4868900  20.3537890  28.7473900  24.8981360  19.9185890
  27.2927520  26.1793310  22.5055450  26.5169620  25.6993750  22.7954020
  27.9440450  25.4998960  22.3311610  21.3093350  26.4913120  23.3831210
  20.4778230  26.2361830  23.7827720  21.9174330  26.5623890  24.1189130
  31.3134950  30.5853500  21.2854580  30.8516480  29.8140740  21.6141750
  32.1260500  30.6119570  21.7907030  21.2894610  30.5253210  23.5789230
  21.5922650  29.6350950  23.3999450  22.0338200  31.0823430  23.3511480
  19.7185300  21.4515010  17.1673600  18.8302000  21.7930980  17.0653480
  20.0026490  21.2515330  16.2754430  17.6818310  24.0520660  23.0513300
  18.2534420  23.2842860  23.0516940  17.6819850  24.3509420  22.1419910
  27.5398260  32.8711510  20.9058570  26.9209700  33.3269010  20.3353010
  28.3950040  33.0262970  20.5048270  26.7336510  28.8550500  22.5125610
  26.6644790  27.9140440  22.3514740  27.4956370  28.9451910  23.0848180
  18.9243180  19.4605020  24.8382230  18.7446020  18.5630770  25.1184990
  18.5223260  20.0076890  25.5129180  27.7641680  21.6620880  22.7394540
  28.1406500  20.7892760  22.6268210  27.6661190  21.9979580  21.8484980
  21.8946690  20.0346510  18.2011980  22.0013440  20.9350240  18.5080740
  20.9839050  19.9864480  17.9106630  31.5465800  19.1571320  19.6722880
  32.3675420  18.6667890  19.7148360  31.5799880  19.7468980  20.4254720
  19.5429850  21.9565520  23.4464570  20.2239960  22.2203890  24.0651970
  19.2277900  21.1166390  23.7802580  23.7354420  23.0032880  22.5337160
  24.2432640  23.5013850  23.1742180  24.2667660  22.2268080  22.3576520
  35.8365350  21.1738070  26.2366510  35.1317520  21.5619780  25.7181620
  36.1023270  21.8688360  26.8387440  22.0190520  17.6431440  26.8000580
  22.0208960  18.1603830  25.9946480  21.1894830  17.1661620  26.7770510
  28.4061610  27.7550750  18.2990480  27.7878880  28.2200200  17.7353200
  28.9184860  28.4478230  18.7159990  23.2693370  27.2826620  24.9774080
  22.9362750  27.9095540  25.6195150  23.4460050  27.8088500  24.1975750
  31.7827280  21.0971700  22.4450420  31.0782850  21.3856590  23.0253530
  32.1439440  21.9071810  22.0849980  21.7005850  19.3541400  24.8071030
  22.0422660  20.1983450  24.5124900  20.7621660  19.5025140  24.9236370
  22.4812470  29.2507420  26.7923260  23.0986470  29.9258500  26.5107710
  21.6205590  29.6595400  26.7010760  17.7744810  28.4407280  15.6730110
  17.3972790  28.9294380  14.9415010  18.0317880  29.1132560  16.3036640
  33.3990060  30.7146830  24.7077900  32.7153580  31.3845940  24.6994570
  33.9384350  30.9127480  23.9422760  34.8514200  20.5426490  22.8359630
  33.9039110  20.5765470  22.9675060  35.1764190  21.3565440  23.2208990
  25.3833740  16.8423670  21.1315620  25.6908720  16.2870560  20.4151120
  24.4534440  16.9768130  20.9488610  30.9348800  32.5590960  23.4223080
  30.9475960  32.1553250  22.5545340  30.3824020  33.3338250  23.3184510
  32.2294220  29.2807180  18.5113250  32.1190550  28.3381510  18.6362670
  32.2262470  29.6422820  19.3976010  30.3334240  27.4620800  24.7505690
  30.7503030  27.2480910  23.9159150  31.0574060  27.7193590  25.3214310
  27.7714500  24.9072500  17.8675740  26.8443780  24.8409880  18.0964210
  27.9239320  25.8452630  17.7530980  27.7583580  21.1789500  14.8642900
  26.8187250  21.3403460  14.9495360  28.0766840  21.8975180  14.3178890
  34.2796340  25.8608020  24.8421930  33.4514970  25.9301110  24.3672060
  34.8746820  26.4462330  24.3737760  31.8011790  26.4692800  18.3710990
  31.1824210  26.1312350  17.7237290  31.7836240  25.8252560  19.0790180
  31.2438350  22.6477340  25.7876800  30.8309530  23.4731050  26.0416790
  30.5114300  22.0622380  25.5953160  23.3771140  25.4337240  20.6495470
  22.9728140  24.7214490  20.1541370  23.4634260  25.0890480  21.5383510
  23.8452840  29.1204800  22.8134680  23.5481130  28.5150270  22.1342460
  24.7952660  29.1582110  22.7024040  22.0899760  22.2080450  24.4294510
  22.6414350  22.3175790  23.6547760  22.6043270  22.5818050  25.1449740
  31.9338450  32.6936670  26.4757780  31.4569010  33.5008860  26.2830390
  31.2500240  32.0415000  26.6283990  22.9371270  28.8586490  29.4642480
  22.0399800  29.0826460  29.7115880  22.9624140  28.9821430  28.5153880
  29.9776490  25.7079610  15.3783740  30.4169770  24.8702040  15.2321560
  30.6904910  26.3409010  15.4647880  21.7642490  25.7299810  28.0399850
  21.6250260  26.6022610  28.4087250  20.8823850  25.3872620  27.8947790
  28.0871870  30.6475680  19.3464980  28.5267780  31.3900010  18.9320370
  28.0258760  30.8902250  20.2703940  23.5622840  31.6721510  30.2485000
  23.5338270  32.0764460  29.3813430  23.3987810  30.7431870  30.0856600
  33.5593630  16.9622420  13.6924780  33.2466290  17.0549250  14.5923850
  34.3206100  17.5403450  13.6422210  20.0775770  24.3282220  18.1502120
  19.9573370  25.0544310  17.5383390  19.7676660  23.5585130  17.6730030
  17.7161140  27.4997360  23.9570760  17.7941560  27.6346130  23.0126480
  18.3302820  26.7913250  24.1498880  18.9608770  29.1997550  20.3676940
  18.5536850  29.3412140  19.5130540  19.8521780  28.9157710  20.1648150
  34.9170910  29.6461460  28.7049180  35.0433970  29.4073340  27.7866360
  34.9592290  28.8146000  29.1771260  28.7787650  33.3489460  27.2743990
  29.2932320  33.2597470  28.0766420  27.9356730  33.6949160  27.5671900
  30.7542050  33.6344800  16.7027990  30.5943190  33.3447740  17.6009820
  30.5888760  32.8584930  16.1673220  23.2330430  33.4143330  18.4799610
  23.0572910  32.4978870  18.2667410  22.3786170  33.7730620  18.7197410
  30.4568180  31.1432360  15.2625990  29.7633340  31.1409650  14.6028270
  31.1991040  30.7191680  14.8320160  30.0218110  32.7695070  19.3374480
  30.4775060  31.9884450  19.6513100  30.3610630  33.4801890  19.8815660
  34.7694920  21.6993920  29.6698920  34.1539190  22.2073590  29.1414380
  34.4491340  20.7992250  29.6124860  17.7720660  28.5411530  26.4965220
  17.9351700  28.0716890  25.6784590  18.2373110  28.0335090  27.1614060
  22.5439430  17.6717290  21.5325790  22.1007580  18.4526830  21.2010310
  23.1024420  17.9947180  22.2396730  26.8309240  20.5385810  27.1361110
  26.3688610  20.7468830  27.9481050  26.4287350  19.7245160  26.8331780
  31.8313750  21.7594760  28.2657770  30.9807340  21.4600510  28.5866840
  31.6715540  22.0036770  27.3541590  28.9263460  23.2596510  30.3656560
  29.2516870  22.4260260  30.0258790  29.7143790  23.7825030  30.5134890
  25.6598250  17.2927990  16.4131620  25.0352430  17.2887860  17.1384930
  25.5728370  16.4258950  16.0167590  24.5815330  18.2164620  23.3915390
  24.8787660  19.1227450  23.3107410  25.1300890  17.7283400  22.7774960
  22.3353650  22.7950860  19.2607040  22.1094570  22.5788030  20.1653660
  21.5546180  23.2279320  18.9153010  29.5651410  22.8014230  17.8597690
  28.9660300  23.5250030  17.6761310  30.1131020  22.7391010  17.0774140
  24.7752860  23.6936440  29.9267310  24.6796460  22.7531170  29.7767710
  25.6184840  23.9151510  29.5315380  28.1716280  21.4377770  19.8900970
  28.5645850  21.7549970  19.0769660  28.5333130  20.5589650  20.0045490
  19.9063400  20.1050110  28.0801090  19.5126790  20.9525320  28.2873870
  19.2181800  19.4676480  28.2709730  26.4808450  20.1885080  31.1497830
  25.7906770  19.9957280  31.7843920  27.2240750  20.4719720  31.6822130
  17.2080450  18.0278570  22.1131170  16.9193500  18.5981430  22.8256150
  17.9526210  17.5483020  22.4762400  17.3950680  21.9698690  13.3233890
  17.3125350  22.9129450  13.4648880  17.0433740  21.8273600  12.4446240
  28.7571420  24.0283520  23.9851750  28.0252540  24.5370330  24.3341850
  28.3595760  23.2113500  23.6840530  25.1948810  20.7037720  22.3904240
  25.1984870  20.2627670  21.5408780  26.0899930  21.0255050  22.4976060
  21.0451190  20.5864210  21.3498450  20.7051240  21.0639440  22.1065500
  20.2828510  20.1329330  20.9899550  25.2568960  21.7049800  15.3811000
  25.3781780  21.6636280  16.3296820  24.8717470  22.5673950  15.2257730
  29.2197330  19.4817200  23.3974690  29.2370070  19.9325850  24.2416540
  28.9712910  18.5822840  23.6108130  24.2690460  24.0150940  14.7794300
  23.7007360  23.5669190  14.1530210  24.9779460  24.3743720  14.2459450
  32.6468080  16.8949380  29.2361070  32.9713850  16.1639040  29.7619050
  32.6824590  16.5763020  28.3342060  19.3459640  27.9162960  28.6561030
  18.9614430  27.2756630  29.2543990  19.6571830  28.6199080  29.2255760
  25.4956780  24.7639500  24.1369650  25.8626910  24.2898070  24.8830990
  25.3061840  25.6381070  24.4777990  18.3597270  19.5083190  20.2663120
  18.0744190  19.1438860  21.1041740  18.2976130  18.7763650  19.6526260
  23.2856150  23.8048140  26.4553860  22.9813220  24.6840120  26.6804220
  24.2402610  23.8647930  26.4911300  21.8137940  28.0109130  17.0520710
  21.0400200  27.4706750  16.8919430  22.5432570  27.4915740  16.7138470
  32.5725920  27.0074490  22.8447100  33.2925040  27.5029780  22.4543210
  32.3707740  26.3292380  22.2000970  28.0335860  18.4012450  16.9876490
  27.2200470  17.9025620  16.9121800  27.8397810  19.2410700  16.5712840
  27.9544720  27.0783550  28.7316100  27.8882030  26.1579220  28.4773690
  27.3249860  27.1758990  29.4460740  30.7484250  22.7732100  15.2838650
  31.6363870  23.0849330  15.1089990  30.7189340  21.9004350  14.8919230
  21.8575340  27.6789510  20.6899520  22.3754010  26.8757770  20.6356410
  21.4059360  27.6168650  21.5316350  26.7444840  28.9455790  15.9626820
  27.0860540  29.6898020  15.4670140  25.9157550  29.2586910  16.3251650
  19.3419880  24.6450880  27.6025220  18.9834820  25.3104730  28.1898560
  19.0474440  23.8134430  27.9737840  22.5433000  25.1035120  30.4864770
  22.2433140  25.2492300  29.5892590  23.3144240  24.5440410  30.3938160
  27.8861450  29.9004120  28.4819900  27.9005990  28.9685080  28.2638810
  27.1786550  29.9863880  29.1209670  33.0198520  24.0843940  14.7518510
  32.9362240  24.5158160  13.9014950  33.7392710  24.5442290  15.1845330
  34.0972660  26.5411460  27.8288480  33.3720850  27.1340240  27.6317870
  34.6248120  26.5335000  27.0301850  34.0485770  30.9386200  17.4800640
  33.4061930  30.2841820  17.7544360  33.6616430  31.3441290  16.7041310
  29.6272250  28.2671630  21.3272330  29.9796070  27.6699760  20.6673700
  28.7434580  27.9415860  21.4980580  25.7135530  29.0269320  18.7342740
  26.4006660  29.5738530  19.1150330  24.9267950  29.5710050  18.7692350
  17.8527930  24.6442140  14.2259820  18.7222780  24.9266940  14.5095740
  17.3618250  25.4578010  14.1108630  25.0162740  26.0315350  18.3468100
  25.4725520  26.8420600  18.5728290  24.6650950  25.7138490  19.1786590
  27.3195350  31.5421690  25.5760400  27.9637570  31.7481070  26.2533820
  27.6824790  30.7810090  25.1231250  20.9174520  16.3753000  18.8190620
  20.7889150  16.3670900  19.7675540  20.0936540  16.7136090  18.4681630
  28.5927430  29.5454040  24.2937850  29.2349660  28.8447200  24.4070020
  29.1176780  30.3252480  24.1134740  32.4383150  29.8302660  14.0176990
  32.2120730  29.1133100  14.6101630  32.0479350  29.5815100  13.1798740
  30.3665050  30.3448940  27.4973910  30.7021290  30.9315630  28.1751830
  29.4465390  30.2141650  27.7271700  18.2199180  33.8569520  14.7921450
  18.5796820  34.4558860  14.1378720  18.0791520  34.4029410  15.5656480
  17.9168450  18.1344120  28.2797320  17.2026970  18.3341040  28.8849930
  18.3363490  17.3583690  28.6512120  32.0199400  27.7474600  15.6791150
  31.7321100  28.2087290  16.4669030  32.8151570  27.2872370  15.9475370
  18.2041040  32.1224380  29.2663850  18.3132160  31.1819120  29.1259240
  17.5521600  32.3879130  28.6177580  26.1953630  30.3940270  30.6661970
  25.8750500  29.6749510  31.2107660  25.5211990  31.0695340  30.7398030
  24.2367800  31.2400720  15.6095120  24.2277900  31.9730410  14.9939630
  23.3166160  30.9932300  15.7022080  19.8374440  26.4615610  16.3541880
  19.2302390  27.2014510  16.3637180  20.3123790  26.5514970  15.5280080
  29.4107230  20.6266430  26.0298770  29.7788050  19.8061640  26.3578340
  28.5505430  20.6868320  26.4454420  32.7769260  19.5823370  16.8386330
  32.1482420  19.6869040  16.1244560  32.2821180  19.8020150  17.6280210
  27.2227400  31.3028960  14.2720310  27.3239380  31.0992950  13.3422290
  26.3229140  31.0487240  14.4768090  24.7453290  21.8609320  18.2544210
  24.0369440  22.3295660  18.6957820  25.0297770  21.2031330  18.8889400
  26.3709220  23.2806020  26.2536740  26.8694470  23.7551840  26.9188590
  26.5132170  22.3569540  26.4606770  28.7768720  18.5859980  19.6940000
  28.6536500  18.6046110  18.7449510  29.7253280  18.6338920  19.8138400
  25.8645510  33.8215280  18.9667980  26.1187010  33.7836670  18.0447350
  24.9157990  33.6948610  18.9596230  22.9488310  20.1694400  15.6294920
  23.7978840  20.6064550  15.5635110  22.5819580  20.4814660  16.4566980
  33.5776080  19.4973980  27.0965130  33.0749680  20.2379380  27.4358940
  34.3932740  19.8857980  26.7801920  31.8698090  24.7407160  20.5426490
  30.9288230  24.7557390  20.7174180  32.1842160  23.9543120  20.9886790
  21.8479730  26.4226760  14.1030450  22.6143000  26.3108120  14.6655880
  21.9254420  25.7264730  13.4507220  20.5426490  23.8551830  14.7863340
  20.6230080  22.9079340  14.8980740  21.4346240  24.1858710  14.8924000
  33.8723670  31.9116010  22.2180750  33.9971090  32.7347180  22.6904560
  34.7389230  31.7006740  21.8704900  21.3441200  34.0047220  21.8897880
  22.0803680  33.4562680  22.1606450  21.7282120  34.8703230  21.7503870
  18.2286680  30.0720790  17.7639390  17.3026460  30.3141930  17.7544800
  18.6943110  30.8995050  17.6424140  20.3499480  33.1893290  31.0783460
  21.1512210  33.5105340  31.4918860  19.8351300  32.8288870  31.8003370
  24.4543510  33.1777530  13.7123450  25.2472120  33.4666360  13.2605240
  23.9347860  32.7469700  13.0335930  29.1864110  29.2973160  31.0258870
  28.5802270  29.3204760  30.2854620  28.8818220  28.5656200  31.5626120
  33.5073680  32.4047660  15.1360190  33.2215190  31.9912800  14.3214370
  33.3093230  33.3335370  15.0160710  18.0697290  25.6766750  30.0219510
  18.5736310  25.0974030  30.5935740  17.3304710  25.9606980  30.5595880
  24.9720910  28.3980940  13.5765800  24.8671550  27.7833290  14.3027180
  24.8045130  27.8746830  12.7928810  25.1235230  27.0837740  29.5555030
  24.3580900  27.6522740  29.4709700  25.3051190  26.7913950  28.6623260
  28.2123640  27.4600970  14.1807790  27.6633740  27.9070270  14.8250530
  28.8342900  26.9550220  14.7045460  32.2658580  28.8143070  30.1130050
  33.0068050  29.1518830  29.6097510  31.5031260  28.9835130  29.5599820
  20.1020370  23.8196340  30.9169580  20.1425710  23.5210210  31.8254810
  20.9565870  24.2203950  30.7577100  23.8798760  26.4191890  16.0773090
  24.3015180  26.2531760  16.9204480  24.0049600  25.6092120  15.5828230
  22.0426180  22.3988440  28.8844070  21.5122640  21.9079390  28.2567410
  22.7114250  22.8272640  28.3502000  26.3926400  25.4429500  13.3250190
  26.9132060  24.7278520  12.9591340  27.0394800  26.0815370  13.6250700
  30.9404240  26.8657900  28.6485260  31.3545260  27.0202980  29.4975680
  30.0055240  26.9913120  28.8111040  31.4126410  24.2054060  30.6524410
  31.9947180  23.4506380  30.5644890  31.5888180  24.7361500  29.8755890
  22.5298480  19.3650810  28.9641360  22.4355350  18.7471560  28.2392230
  21.9495870  20.0917100  28.7371270  25.2959920  17.9224050  25.9968750
  24.8477220  17.9448310  25.1514300  24.6625120  17.5243070  26.5939050
  25.7019470  26.8178380  26.6181190  26.1207580  27.6611110  26.4457430
  24.7828100  26.9550420  26.3887970  28.0383370  24.5494560  28.0019030
  28.1579580  23.9535700  28.7413870  28.8977370  24.5864250  27.5820330
  30.3771270  25.1031750  26.5781540  29.8506490  25.6274370  25.9746680
  30.7202610  25.7359140  27.2091270  22.7757660  22.4925120  13.0231250
  22.5746720  21.6292480  13.3844590  22.6049710  22.4058480  12.0852850
  23.5526890  33.1231390  27.7338920  23.0147980  33.8477450  27.4147620
  23.8060850  32.6461730  26.9436260  24.8052140  21.0915910  29.2594850
  25.3951830  20.7831760  29.9472670  23.9872380  20.6195660  29.4154750
  29.6245570  20.7081720  29.4927870  28.9361090  20.0463260  29.4277860
  30.3451590  20.2619990  29.9376330  30.2545970  17.3033350  15.5518130
  30.5348260  16.4601250  15.9077550  29.4811700  17.5356460  16.0656880
  21.5740460  19.5925740  13.0109130  21.8766360  19.5993170  12.1028280
  22.3135050  19.2423600  13.5076790  26.4089100  34.3582600  27.9925570
  26.3347800  35.2617740  28.2997940  25.5067940  34.0394500  27.9647640
  24.7925390  18.5360360  13.9965330  24.4447390  17.8584350  13.4167780
  24.9938160  18.0749870  14.8108720  26.9574430  33.5241110  15.6151930
  27.8525220  33.8626080  15.6370690  26.9892060  32.8020520  14.9876210
  20.5970590  28.8968160  13.8438930  21.0345460  29.4397830  14.4996510
  21.0818320  28.0715110  13.8535270  17.8116390  31.6857190  21.2959190
  18.1419400  30.8178250  21.0637830  18.2407390  31.8915710  22.1264150
  22.4078310  30.0166200  18.9561160  22.1073850  29.8931170  19.8565070
  22.3015800  29.1574790  18.5476890  18.3006600  32.5527780  24.0340820
  17.8637590  32.7328580  24.8664970  18.8684280  33.3102400  23.8922540
  35.1770230  29.7962600  13.6587840  34.3463190  29.8639250  14.1295070
  35.3542060  30.6866720  13.3554700  34.6326690  26.5410080  16.1622040
  35.3945600  27.1106730  16.2681730  34.6481060  25.9737280  16.9330350
  18.1331030  25.0648010  20.3929700  17.4779870  24.7959650  19.7489400
  18.9708980  24.9552490  19.9431680  35.6386660  27.3960180  21.0063970
  36.0095490  26.6127500  20.5999940  36.2788590  28.0849280  20.8281270
  32.6220420  28.7796760  26.4194290  31.8080260  29.2093920  26.6820080
  33.0294620  29.3915170  25.8063340  34.6845860  26.8344450  13.3194560
  34.9594700  27.7423330  13.1913780  34.4956600  26.7706980  14.2556550
  31.0821470  19.8589300  14.6148190  31.5006350  19.6720280  13.7744850
  30.7757530  19.0068350  14.9251120  34.5811200  24.7713440  18.3123990
  34.2054800  24.0041370  17.8805280  33.8514320  25.1536140  18.7998920
  19.1706960  25.4500580  24.9333040  19.5380000  25.3627980  25.8129060
  18.6017780  24.6867130  24.8339900  33.9710820  23.9184960  27.9463510
  33.7396910  23.6897710  27.0461460  34.2315370  24.8384510  27.9008400
  18.7222960  22.3609670  28.8391460  17.8279010  22.3276430  29.1785170
  19.2620510  22.5596460  29.6042710  32.4098890  19.1441390  30.7243210
  33.2869070  19.1524790  31.1077210  32.4219730  18.4072230  30.1135560
  17.3469110  22.2746940  16.3355030  16.4433190  22.5377140  16.1606690
  17.8309730  22.5458110  15.5554990  33.8562160  22.9970930  21.6131230
  34.3799640  22.5033580  20.9821400  34.4421580  23.1321290  22.3578800
  34.0351880  23.0810800  25.1350780  33.0854590  23.0474340  25.2495770
  34.2164890  23.9910910  24.9000550  19.8896320  21.3312480  14.2449410
  20.5988020  20.9095700  13.7596690  19.1736260  21.3987710  13.6132760
  19.5370480  17.3851810  13.2852060  20.2598610  17.9260750  13.6033280
  19.8095000  17.1115230  12.4093600  33.3462130  22.2544280  17.5523640
  33.8421250  22.0215150  18.3372520  33.1478200  21.4156120  17.1361280
  19.2262670  16.6358000  23.1874680  19.8738860  16.0855380  22.7469840
  19.6464510  16.8901150  24.0090490  34.7749290  20.8905230  20.0861320
  34.6648570  20.7361270  21.0243590  35.5356880  20.3626170  19.8436730
  33.1215010  16.8299360  26.5444320  33.7587230  17.4433500  26.9103510
  33.2689900  16.8660020  25.5993550  35.6639560  18.7213150  13.3267460
  36.5888870  18.5894330  13.1185750  35.6415350  18.8005970  14.2803910
  35.7378050  19.4923810  15.9524170  34.9429550  19.4268930  16.4817080
  35.9421330  20.4274450  15.9409520  32.6796470  33.5315360  19.9462560
  33.2755540  33.2099930  19.2696980  32.9374620  33.0587180  20.7375830
  18.9794670  16.7913670  25.9300000  18.6309490  17.2477490  26.6958180
  18.6482370  15.8970800  26.0122430  20.5859040  29.9633270  30.0953190
  20.5428670  29.5926180  30.9767650  20.7170050  30.9010840  30.2355010
  24.2865070  31.5192860  25.6962910  24.0456430  31.7867420  24.8093430
  25.2267710  31.6898590  25.7513770  26.4919490  17.9825550  29.4519420
  26.4308380  18.5747380  30.2014830  27.4319870  17.8751510  29.3069680
  29.1294050  17.6395610  29.0911710  29.7434460  17.9574900  28.4292790
  29.6743610  17.1544200  29.7107570  35.5469230  33.5387240  26.4973550
  35.0527510  33.9356110  25.7800680  34.9382520  32.9136450  26.8910830
  19.6515310  16.3189870  29.2050770  20.1998300  16.1377920  28.4416880
  19.7170620  15.5283980  29.7407080  20.4247070  32.9095520  27.2150970
  19.8307390  32.7780220  27.9541010  20.4170910  32.0733660  26.7493070
  29.8702090  16.2027750  25.4181000  28.9961930  16.5362860  25.2153930
  29.7612840  15.7300930  26.2432870  30.7774070  18.4098620  26.8022720
  30.4487430  17.5950380  26.4224450  31.7256370  18.3668430  26.6788410
  33.2308680  34.1810660  23.7760290  32.7711650  34.9326470  23.4018310
  32.6021140  33.4617130  23.7175090  20.0559300  30.2753900  26.1659010
  19.3293360  29.6559190  26.0984960  20.1168450  30.6694510  25.2957090
  23.6604400  32.4898900  22.9508420  24.1769420  31.8786260  22.4256680
  24.3101780  32.9927680  23.4419430  26.3999900  33.3807390  23.7777400
  26.6877710  33.1261690  22.9010410  26.9123120  32.8284750  24.3682970
  27.6176910  17.1197590  24.3573910  26.8348700  17.5943090  24.6370670
  27.3239840  16.2152420  24.2487090  32.1697980  17.8220690  22.4023000
  32.6106070  17.7665790  21.5544600  31.9005570  18.7378700  22.4733180
  34.0336550  17.4535930  20.4131820  33.9724950  16.5097150  20.2662840
  34.8128580  17.5616020  20.9585280  18.3389300  33.5928290  19.3755770
  18.1711340  32.9598970  20.0737660  17.4723810  33.7987690  19.0249960
  18.9617320  17.4245070  16.8787630  19.7196680  17.5373950  16.3051660
  18.4994490  18.2614270  16.8331060  25.5031130  19.5384340  19.8689940
  24.6905640  19.1641230  19.5285820  26.0072770  18.7829420  20.1711130
  30.0056110  16.2026790  21.1073010  30.6085480  16.7747000  21.5821530
  29.2649100  16.7666230  20.8846910  33.1490710  16.6048350  16.3813290
  33.3441340  17.5031800  16.6480720  32.3620580  16.3735430  16.8746240
  19.9452000  32.2861520  16.8205910  19.4199620  32.6669550  16.1167870
  19.8696580  32.9112290  17.5415620  21.3342470  17.9509120  15.4189600
  21.8635230  17.1638920  15.2897550  21.9670790  18.6300310  15.6525130
  23.5280310  17.6884260  18.4734990  22.8983050  16.9871570  18.6405120
  22.9885450  18.4488390  18.2568150  26.4672260  34.3023490  31.1445600
  27.3939570  34.0667760  31.1881560  26.4522690  35.1295490  30.6631630
  34.7017320  33.8449060  18.1419850  34.8769510  33.1586800  17.4980770
  34.0038890  34.3696110  17.7496520  23.6535870  16.9668240  30.9087480
  23.3720140  17.4701840  30.1448300  24.0355570  16.1689990  30.5429610
  22.5444970  34.2343900  15.6955160  23.2763790  33.9503180  15.1479050
  22.8038640  33.9957180  16.5854540  21.7059760  30.3508630  15.7001490
  21.0768640  30.8193730  16.2487320  21.8207590  29.5057850  16.1347680
  30.2551330  16.3821820  31.4867950  30.1416780  16.7016430  32.3819470
  31.0721070  16.7834330  31.1905230  27.2927520  26.1793310   3.7311960
  26.5169620  25.6993750   4.0210530  27.9440450  25.4998960   3.5568120
  21.3093350  26.4913120   4.6087720  20.4778230  26.2361830   5.0084230
  21.9174330  26.5623890   5.3445640  31.3134950  30.5853500   2.5111090
  30.8516480  29.8140740   2.8398260  32.1260500  30.6119570   3.0163540
  21.2894610  30.5253210   4.8045740  21.5922650  29.6350950   4.6255960
  22.0338200  31.0823430   4.5767990  17.6818310  24.0520660   4.2769810
  18.2534420  23.2842860   4.2773450  17.6819850  24.3509420   3.3676420
  26.7336510  28.8550500   3.7382120  26.6644790  27.9140440   3.5771250
  27.4956370  28.9451910   4.3104690  18.9243180  19.4605020   6.0638740
  18.7446020  18.5630770   6.3441500  18.5223260  20.0076890   6.7385690
  27.7641680  21.6620880   3.9651050  28.1406500  20.7892760   3.8524720
  27.6661190  21.9979580   3.0741490  19.5429850  21.9565520   4.6721080
  20.2239960  22.2203890   5.2908480  19.2277900  21.1166390   5.0059090
  23.7354420  23.0032880   3.7593670  24.2432640  23.5013850   4.3998690
  24.2667660  22.2268080   3.5833030  35.8365350  21.1738070   7.4623020
  35.1317520  21.5619780   6.9438130  36.1023270  21.8688360   8.0643950
  22.0190520  17.6431440   8.0257090  22.0208960  18.1603830   7.2202990
  21.1894830  17.1661620   8.0027020  23.2693370  27.2826620   6.2030590
  22.9362750  27.9095540   6.8451660  23.4460050  27.8088500   5.4232260
  31.7827280  21.0971700   3.6706930  31.0782850  21.3856590   4.2510040
  32.1439440  21.9071810   3.3106490  21.7005850  19.3541400   6.0327540
  22.0422660  20.1983450   5.7381410  20.7621660  19.5025140   6.1492880
  22.4812470  29.2507420   8.0179770  23.0986470  29.9258500   7.7364220
  21.6205590  29.6595400   7.9267270  33.3990060  30.7146830   5.9334410
  32.7153580  31.3845940   5.9251080  33.9384350  30.9127480   5.1679270
  34.8514200  20.5426490   4.0616140  33.9039110  20.5765470   4.1931570
  35.1764190  21.3565440   4.4465500  30.9348800  32.5590960   4.6479590
  30.9475960  32.1553250   3.7801850  30.3824020  33.3338250   4.5441020
  30.3334240  27.4620800   5.9762200  30.7503030  27.2480910   5.1415660
  31.0574060  27.7193590   6.5470820  34.2796340  25.8608020   6.0678440
  33.4514970  25.9301110   5.5928570  34.8746820  26.4462330   5.5994270
  31.2438350  22.6477340   7.0133310  30.8309530  23.4731050   7.2673300
  30.5114300  22.0622380   6.8209670  23.8452840  29.1204800   4.0391190
  23.5481130  28.5150270   3.3598970  24.7952660  29.1582110   3.9280550
  22.0899760  22.2080450   5.6551020  22.6414350  22.3175790   4.8804270
  22.6043270  22.5818050   6.3706250  31.9338450  32.6936670   7.7014290
  31.4569010  33.5008860   7.5086900  31.2500240  32.0415000   7.8540500
  22.9371270  28.8586490  10.6898990  22.0399800  29.0826460  10.9372390
  22.9624140  28.9821430   9.7410390  21.7642490  25.7299810   9.2656360
  21.6250260  26.6022610   9.6343760  20.8823850  25.3872620   9.1204300
  23.5622840  31.6721510  11.4741510  23.5338270  32.0764460  10.6069940
  23.3987810  30.7431870  11.3113110  35.5137660  32.4548610  12.7705680
  35.9897380  32.9331500  13.4494760  36.1344820  32.3866100  12.0451180
  17.7161140  27.4997360   5.1827270  17.7941560  27.6346130   4.2382990
  18.3302820  26.7913250   5.3755390  34.9170910  29.6461460   9.9305690
  35.0433970  29.4073340   9.0122870  34.9592290  28.8146000  10.4027770
  28.7787650  33.3489460   8.5000500  29.2932320  33.2597470   9.3022930
  27.9356730  33.6949160   8.7928410  34.7694920  21.6993920  10.8955430
  34.1539190  22.2073590  10.3670890  34.4491340  20.7992250  10.8381370
  17.7720660  28.5411530   7.7221730  17.9351700  28.0716890   6.9041100
  18.2373110  28.0335090   8.3870570  22.5439430  17.6717290   2.7582300
  22.1007580  18.4526830   2.4266820  23.1024420  17.9947180   3.4653240
  26.8309240  20.5385810   8.3617620  26.3688610  20.7468830   9.1737560
  26.4287350  19.7245160   8.0588290  31.8313750  21.7594760   9.4914280
  30.9807340  21.4600510   9.8123350  31.6715540  22.0036770   8.5798100
  28.9263460  23.2596510  11.5913070  29.2516870  22.4260260  11.2515300
  29.7143790  23.7825030  11.7391400  24.5815330  18.2164620   4.6171900
  24.8787660  19.1227450   4.5363920  25.1300890  17.7283400   4.0031470
  24.7752860  23.6936440  11.1523820  24.6796460  22.7531170  11.0024220
  25.6184840  23.9151510  10.7571890  19.9063400  20.1050110   9.3057600
  19.5126790  20.9525320   9.5130380  19.2181800  19.4676480   9.4966240
  26.4808450  20.1885080  12.3754340  25.7906770  19.9957280  13.0100430
  27.2240750  20.4719720  12.9078640  17.2080450  18.0278570   3.3387680
  16.9193500  18.5981430   4.0512660  17.9526210  17.5483020   3.7018910
  28.7571420  24.0283520   5.2108260  28.0252540  24.5370330   5.5598360
  28.3595760  23.2113500   4.9097040  25.1948810  20.7037720   3.6160750
  25.1984870  20.2627670   2.7665290  26.0899930  21.0255050   3.7232570
  21.0451190  20.5864210   2.5754960  20.7051240  21.0639440   3.3322010
  20.2828510  20.1329330   2.2156060  29.2197330  19.4817200   4.6231200
  29.2370070  19.9325850   5.4673050  28.9712910  18.5822840   4.8364640
  32.6468080  16.8949380  10.4617580  32.9713850  16.1639040  10.9875560
  32.6824590  16.5763020   9.5598570  19.3459640  27.9162960   9.8817540
  18.9614430  27.2756630  10.4800500  19.6571830  28.6199080  10.4512270
  25.4956780  24.7639500   5.3626160  25.8626910  24.2898070   6.1087500
  25.3061840  25.6381070   5.7034500  23.2856150  23.8048140   7.6810370
  22.9813220  24.6840120   7.9060730  24.2402610  23.8647930   7.7167810
  32.5725920  27.0074490   4.0703610  33.2925040  27.5029780   3.6799720
  32.3707740  26.3292380   3.4257480  27.9544720  27.0783550   9.9572610
  27.8882030  26.1579220   9.7030200  27.3249860  27.1758990  10.6717250
  21.8575340  27.6789510   1.9156030  22.3754010  26.8757770   1.8612920
  21.4059360  27.6168650   2.7572860  19.3419880  24.6450880   8.8281730
  18.9834820  25.3104730   9.4155070  19.0474440  23.8134430   9.1994350
  22.5433000  25.1035120  11.7121280  22.2433140  25.2492300  10.8149100
  23.3144240  24.5440410  11.6194670  27.8861450  29.9004120   9.7076410
  27.9005990  28.9685080   9.4895320  27.1786550  29.9863880  10.3466180
  34.0972660  26.5411460   9.0544990  33.3720850  27.1340240   8.8574380
  34.6248120  26.5335000   8.2558360  29.6272250  28.2671630   2.5528840
  29.9796070  27.6699760   1.8930210  28.7434580  27.9415860   2.7237090
  27.3195350  31.5421690   6.8016910  27.9637570  31.7481070   7.4790330
  27.6824790  30.7810090   6.3487760  28.5927430  29.5454040   5.5194360
  29.2349660  28.8447200   5.6326530  29.1176780  30.3252480   5.3391250
  30.3665050  30.3448940   8.7230420  30.7021290  30.9315630   9.4008340
  29.4465390  30.2141650   8.9528210  17.9168450  18.1344120   9.5053830
  17.2026970  18.3341040  10.1106440  18.3363490  17.3583690   9.8768630
  18.2041040  32.1224380  10.4920360  18.3132160  31.1819120  10.3515750
  17.5521600  32.3879130   9.8434090  26.1953630  30.3940270  11.8918480
  25.8750500  29.6749510  12.4364170  25.5211990  31.0695340  11.9654540
  29.4107230  20.6266430   7.2555280  29.7788050  19.8061640   7.5834850
  28.5505430  20.6868320   7.6710930  26.3709220  23.2806020   7.4793250
  26.8694470  23.7551840   8.1445100  26.5132170  22.3569540   7.6863280
  33.5776080  19.4973980   8.3221640  33.0749680  20.2379380   8.6615450
  34.3932740  19.8857980   8.0058430  31.8698090  24.7407160   1.7683000
  30.9288230  24.7557390   1.9430690  32.1842160  23.9543120   2.2143300
  33.8723670  31.9116010   3.4437260  33.9971090  32.7347180   3.9161070
  34.7389230  31.7006740   3.0961410  21.3441200  34.0047220   3.1154390
  22.0803680  33.4562680   3.3862960  21.7282120  34.8703230   2.9760380
  20.3499480  33.1893290  12.3039970  21.1512210  33.5105340  12.7175370
  19.8351300  32.8288870  13.0259880  29.1864110  29.2973160  12.2515380
  28.5802270  29.3204760  11.5111130  28.8818220  28.5656200  12.7882630
  30.6164480  33.0253450  10.8624790  31.5686230  32.9411470  10.8125030
  30.4692700  33.6895160  11.5358580  18.0697290  25.6766750  11.2476020
  18.5736310  25.0974030  11.8192250  17.3304710  25.9606980  11.7852390
  25.1235230  27.0837740  10.7811540  24.3580900  27.6522740  10.6966210
  25.3051190  26.7913950   9.8879770  32.2658580  28.8143070  11.3386560
  33.0068050  29.1518830  10.8354020  31.5031260  28.9835130  10.7856330
  20.1020370  23.8196340  12.1426090  20.1425710  23.5210210  13.0511320
  20.9565870  24.2203950  11.9833610  22.0426180  22.3988440  10.1100580
  21.5122640  21.9079390   9.4823920  22.7114250  22.8272640   9.5758510
  30.9404240  26.8657900   9.8741770  31.3545260  27.0202980  10.7232190
  30.0055240  26.9913120  10.0367550  31.4126410  24.2054060  11.8780920
  31.9947180  23.4506380  11.7901400  31.5888180  24.7361500  11.1012400
  22.5298480  19.3650810  10.1897870  22.4355350  18.7471560   9.4648740
  21.9495870  20.0917100   9.9627780  25.2959920  17.9224050   7.2225260
  24.8477220  17.9448310   6.3770810  24.6625120  17.5243070   7.8195560
  25.7019470  26.8178380   7.8437700  26.1207580  27.6611110   7.6713940
  24.7828100  26.9550420   7.6144480  28.0383370  24.5494560   9.2275540
  28.1579580  23.9535700   9.9670380  28.8977370  24.5864250   8.8076840
  30.3771270  25.1031750   7.8038050  29.8506490  25.6274370   7.2003190
  30.7202610  25.7359140   8.4347780  23.5526890  33.1231390   8.9595430
  23.0147980  33.8477450   8.6404130  23.8060850  32.6461730   8.1692770
  24.8052140  21.0915910  10.4851360  25.3951830  20.7831760  11.1729180
  23.9872380  20.6195660  10.6411260  29.6245570  20.7081720  10.7184380
  28.9361090  20.0463260  10.6534370  30.3451590  20.2619990  11.1632840
  26.4089100  34.3582600   9.2182080  26.3347800  35.2617740   9.5254450
  25.5067940  34.0394500   9.1904150  17.8116390  31.6857190   2.5215700
  18.1419400  30.8178250   2.2894340  18.2407390  31.8915710   3.3520660
  18.3006600  32.5527780   5.2597330  17.8637590  32.7328580   6.0921480
  18.8684280  33.3102400   5.1179050  33.9368780  32.0544780   9.5474640
  33.3370770  32.1137340   8.8038560  34.0662680  31.1149760   9.6771490
  35.6386660  27.3960180   2.2320480  36.0095490  26.6127500   1.8256450
  36.2788590  28.0849280   2.0537780  32.6220420  28.7796760   7.6450800
  31.8080260  29.2093920   7.9076590  33.0294620  29.3915170   7.0319850
  19.1706960  25.4500580   6.1589550  19.5380000  25.3627980   7.0385570
  18.6017780  24.6867130   6.0596410  33.9710820  23.9184960   9.1720020
  33.7396910  23.6897710   8.2717970  34.2315370  24.8384510   9.1264910
  18.7222960  22.3609670  10.0647970  17.8279010  22.3276430  10.4041680
  19.2620510  22.5596460  10.8299220  32.4098890  19.1441390  11.9499720
  33.2869070  19.1524790  12.3333720  32.4219730  18.4072230  11.3392070
  33.8562160  22.9970930   2.8387740  34.3799640  22.5033580   2.2077910
  34.4421580  23.1321290   3.5835310  34.0351880  23.0810800   6.3607290
  33.0854590  23.0474340   6.4752280  34.2164890  23.9910910   6.1257060
  19.2262670  16.6358000   4.4131190  19.8738860  16.0855380   3.9726350
  19.6464510  16.8901150   5.2347000  33.1215010  16.8299360   7.7700830
  33.7587230  17.4433500   8.1360020  33.2689900  16.8660020   6.8250060
  18.9794670  16.7913670   7.1556510  18.6309490  17.2477490   7.9214690
  18.6482370  15.8970800   7.2378940  20.5859040  29.9633270  11.3209700
  20.5428670  29.5926180  12.2024160  20.7170050  30.9010840  11.4611520
  24.2865070  31.5192860   6.9219420  24.0456430  31.7867420   6.0349940
  25.2267710  31.6898590   6.9770280  26.4919490  17.9825550  10.6775930
  26.4308380  18.5747380  11.4271340  27.4319870  17.8751510  10.5326190
  29.1294050  17.6395610  10.3168220  29.7434460  17.9574900   9.6549300
  29.6743610  17.1544200  10.9364080  35.5469230  33.5387240   7.7230060
  35.0527510  33.9356110   7.0057190  34.9382520  32.9136450   8.1167340
  19.6515310  16.3189870  10.4307280  20.1998300  16.1377920   9.6673390
  19.7170620  15.5283980  10.9663590  20.4247070  32.9095520   8.4407480
  19.8307390  32.7780220   9.1797520  20.4170910  32.0733660   7.9749580
  29.8702090  16.2027750   6.6437510  28.9961930  16.5362860   6.4410440
  29.7612840  15.7300930   7.4689380  30.7774070  18.4098620   8.0279230
  30.4487430  17.5950380   7.6480960  31.7256370  18.3668430   7.9044920
  33.2308680  34.1810660   5.0016800  32.7711650  34.9326470   4.6274820
  32.6021140  33.4617130   4.9431600  20.0559300  30.2753900   7.3915520
  19.3293360  29.6559190   7.3241470  20.1168450  30.6694510   6.5213600
  23.6604400  32.4898900   4.1764930  24.1769420  31.8786260   3.6513190
  24.3101780  32.9927680   4.6675940  26.3999900  33.3807390   5.0033910
  26.6877710  33.1261690   4.1266920  26.9123120  32.8284750   5.5939480
  27.6176910  17.1197590   5.5830420  26.8348700  17.5943090   5.8627180
  27.3239840  16.2152420   5.4743600  32.1697980  17.8220690   3.6279510
  32.6106070  17.7665790   2.7801110  31.9005570  18.7378700   3.6989690
  30.0056110  16.2026790   2.3329520  30.6085480  16.7747000   2.8078040
  29.2649100  16.7666230   2.1103420  26.4672260  34.3023490  12.3702110
  27.3939570  34.0667760  12.4138070  26.4522690  35.1295490  11.8888140
  23.6535870  16.9668240  12.1343990  23.3720140  17.4701840  11.3704810
  24.0355570  16.1689990  11.7686120  30.2551330  16.3821820  12.7124460
  30.1416780  16.7016430  13.6075980  31.0721070  16.7834330  12.4161740
  33.0349820  33.5293350  12.1943150  33.8275140  33.0342580  11.9869110
  33.3282970  34.2083490  12.8018760  29.1609480   5.6270800  58.1733160
  29.0803530   4.7125410  57.9024870  28.7473900   6.1237870  57.4672870
  27.2927520   7.4049820  60.0542430  26.5169620   6.9250260  60.3441000
  27.9440450   6.7255470  59.8798590  31.3134950  11.8110010  58.8341560
  30.8516480  11.0397250  59.1628730  32.1260500  11.8376080  59.3394010
  21.2894610  11.7509720  61.1276210  21.5922650  10.8607460  60.9486430
  22.0338200  12.3079940  60.8998460  19.7185300   2.6771520  54.7160580
  18.8302000   3.0187490  54.6140460  20.0026490   2.4771840  53.8241410
  17.6818310   5.2777170  60.6000280  18.2534420   4.5099370  60.6003920
  17.6819850   5.5765930  59.6906890  27.5398260  14.0968020  58.4545550
  26.9209700  14.5525520  57.8839990  28.3950040  14.2519480  58.0535250
  26.7336510  10.0807010  60.0612590  26.6644790   9.1396950  59.9001720
  27.4956370  10.1708420  60.6335160  27.7641680   2.8877390  60.2881520
  28.1406500   2.0149270  60.1755190  27.6661190   3.2236090  59.3971960
  23.7354420   4.2289390  60.0824140  24.2432640   4.7270360  60.7229160
  24.2667660   3.4524590  59.9063500  28.4061610   8.9807260  55.8477460
  27.7878880   9.4456710  55.2840180  28.9184860   9.6734740  56.2646970
  31.7827280   2.3228210  59.9937400  31.0782850   2.6113100  60.5740510
  32.1439440   3.1328320  59.6336960  17.7744810   9.6663790  53.2217090
  17.3972790  10.1550890  52.4901990  18.0317880  10.3389070  53.8523620
  34.8514200   1.7683000  60.3846610  33.9039110   1.8021980  60.5162040
  35.1764190   2.5821950  60.7695970  30.9348800  13.7847470  60.9710060
  30.9475960  13.3809760  60.1032320  30.3824020  14.5594760  60.8671490
  32.2294220  10.5063690  56.0600230  32.1190550   9.5638020  56.1849650
  32.2262470  10.8679330  56.9462990  27.7714500   6.1329010  55.4162720
  26.8443780   6.0666390  55.6451190  27.9239320   7.0709140  55.3017960
  27.7583580   2.4046010  52.4129880  26.8187250   2.5659970  52.4982340
  28.0766840   3.1231690  51.8665870  31.8011790   7.6949310  55.9197970
  31.1824210   7.3568860  55.2724270  31.7836240   7.0509070  56.6277160
  23.3771140   6.6593750  58.1982450  22.9728140   5.9471000  57.7028350
  23.4634260   6.3146990  59.0870490  23.8452840  10.3461310  60.3621660
  23.5481130   9.7406780  59.6829440  24.7952660  10.3838620  60.2511020
  29.9776490   6.9336120  52.9270720  30.4169770   6.0958550  52.7808540
  30.6904910   7.5665520  53.0134860  28.0871870  11.8732190  56.8951960
  28.5267780  12.6156520  56.4807350  28.0258760  12.1158760  57.8190920
  20.0775770   5.5538730  55.6989100  19.9573370   6.2800820  55.0870370
  19.7676660   4.7841640  55.2217010  18.9608770  10.4254060  57.9163920
  18.5536850  10.5668650  57.0617520  19.8521780  10.1414220  57.7135130
  30.7542050  14.8601310  54.2514970  30.5943190  14.5704250  55.1496800
  30.5888760  14.0841440  53.7160200  23.2330430  14.6399840  56.0286590
  23.0572910  13.7235380  55.8154390  22.3786170  14.9987130  56.2684390
  30.4568180  12.3688870  52.8112970  29.7633340  12.3666160  52.1515250
  31.1991040  11.9448190  52.3807140  30.0218110  13.9951580  56.8861460
  30.4775060  13.2140960  57.2000080  30.3610630  14.7058400  57.4302640
  22.3353650   4.0207370  56.8094020  22.1094570   3.8044540  57.7140640
  21.5546180   4.4535830  56.4639990  29.5651410   4.0270740  55.4084670
  28.9660300   4.7506540  55.2248290  30.1131020   3.9647520  54.6261120
  28.1716280   2.6634280  57.4387950  28.5645850   2.9806480  56.6256640
  28.5333130   1.7846160  57.5532470  17.3950680   3.1955200  50.8720870
  17.3125350   4.1385960  51.0135860  17.0433740   3.0530110  49.9933220
  25.2568960   2.9306310  52.9297980  25.3781780   2.8892790  53.8783800
  24.8717470   3.7930460  52.7744710  24.2690460   5.2407450  52.3281280
  23.7007360   4.7925700  51.7017190  24.9779460   5.6000230  51.7946430
  21.8137940   9.2365640  54.6007690  21.0400200   8.6963260  54.4406410
  22.5432570   8.7172250  54.2625450  32.5725920   8.2331000  60.3934080
  33.2925040   8.7286290  60.0030190  32.3707740   7.5548890  59.7487950
  30.7484250   3.9988610  52.8325630  31.6363870   4.3105840  52.6576970
  30.7189340   3.1260860  52.4406210  21.8575340   8.9046020  58.2386500
  22.3754010   8.1014280  58.1843390  21.4059360   8.8425160  59.0803330
  26.7444840  10.1712300  53.5113800  27.0860540  10.9154530  53.0157120
  25.9157550  10.4843420  53.8738630  33.0198520   5.3100450  52.3005490
  32.9362240   5.7414670  51.4501930  33.7392710   5.7698800  52.7332310
  34.0485770  12.1642710  55.0287620  33.4061930  11.5098330  55.3031340
  33.6616430  12.5697800  54.2528290  29.6272250   9.4928140  58.8759310
  29.9796070   8.8956270  58.2160680  28.7434580   9.1672370  59.0467560
  25.7135530  10.2525830  56.2829720  26.4006660  10.7995040  56.6637310
  24.9267950  10.7966560  56.3179330  17.8527930   5.8698650  51.7746800
  18.7222780   6.1523450  52.0582720  17.3618250   6.6834520  51.6595610
  25.0162740   7.2571860  55.8955080  25.4725520   8.0677110  56.1215270
  24.6650950   6.9395000  56.7273570  32.4383150  11.0559170  51.5663970
  32.2120730  10.3389610  52.1588610  32.0479350  10.8071610  50.7285720
  18.2199180  15.0826030  52.3408430  18.5796820  15.6815370  51.6865700
  18.0791520  15.6285920  53.1143460  32.0199400   8.9731110  53.2278130
  31.7321100   9.4343800  54.0156010  32.8151570   8.5128880  53.4962350
  24.2367800  12.4657230  53.1582100  24.2277900  13.1986920  52.5426610
  23.3166160  12.2188810  53.2509060  19.8374440   7.6872120  53.9028860
  19.2302390   8.4271020  53.9124160  20.3123790   7.7771480  53.0767060
  27.2227400  12.5285470  51.8207290  27.3239380  12.3249460  50.8909270
  26.3229140  12.2743750  52.0255070  24.7453290   3.0865830  55.8031190
  24.0369440   3.5552170  56.2444800  25.0297770   2.4287840  56.4376380
  25.8645510  15.0471790  56.5154960  26.1187010  15.0093180  55.5934330
  24.9157990  14.9205120  56.5083210  31.8698090   5.9663670  58.0913470
  30.9288230   5.9813900  58.2661160  32.1842160   5.1799630  58.5373770
  21.8479730   7.6483270  51.6517430  22.6143000   7.5364630  52.2142860
  21.9254420   6.9521240  50.9994200  20.5426490   5.0808340  52.3350320
  20.6230080   4.1335850  52.4467720  21.4346240   5.4115220  52.4410980
  33.8723670  13.1372520  59.7667730  33.9971090  13.9603690  60.2391540
  34.7389230  12.9263250  59.4191880  21.3441200  15.2303730  59.4384860
  22.0803680  14.6819190  59.7093430  21.7282120  16.0959740  59.2990850
  18.2286680  11.2977300  55.3126370  17.3026460  11.5398440  55.3031780
  18.6943110  12.1251560  55.1911120  24.4543510  14.4034040  51.2610430
  25.2472120  14.6922870  50.8092220  23.9347860  13.9726210  50.5822910
  33.5073680  13.6304170  52.6847170  33.2215190  13.2169310  51.8701350
  33.3093230  14.5591880  52.5647690  24.9720910   9.6237450  51.1252780
  24.8671550   9.0089800  51.8514160  24.8045130   9.1003340  50.3415790
  28.2123640   8.6857480  51.7294770  27.6633740   9.1326780  52.3737510
  28.8342900   8.1806730  52.2532440  23.8798760   7.6448400  53.6260070
  24.3015180   7.4788270  54.4691460  24.0049600   6.8348630  53.1315210
  26.3926400   6.6686010  50.8737170  26.9132060   5.9535030  50.5078320
  27.0394800   7.3071880  51.1737680  22.7757660   3.7181630  50.5718230
  22.5746720   2.8548990  50.9331570  22.6049710   3.6314990  49.6339830
  26.9574430  14.7497620  53.1638910  27.8525220  15.0882590  53.1857670
  26.9892060  14.0277030  52.5363190  20.5970590  10.1224670  51.3925910
  21.0345460  10.6654340  52.0483490  21.0818320   9.2971620  51.4022250
  17.8116390  12.9113700  58.8446170  18.1419400  12.0434760  58.6124810
  18.2407390  13.1172220  59.6751130  22.4078310  11.2422710  56.5048140
  22.1073850  11.1187680  57.4052050  22.3015800  10.3831300  56.0963870
  35.1770230  11.0219110  51.2074820  34.3463190  11.0895760  51.6782050
  35.3542060  11.9123230  50.9041680  34.6326690   7.7666590  53.7109020
  35.3945600   8.3363240  53.8168710  34.6481060   7.1993790  54.4817330
  18.1331030   6.2904520  57.9416680  17.4779870   6.0216160  57.2976380
  18.9708980   6.1809000  57.4918660  35.6386660   8.6216690  58.5550950
  36.0095490   7.8384010  58.1486920  36.2788590   9.3105790  58.3768250
  34.6845860   8.0600960  50.8681540  34.9594700   8.9679840  50.7400760
  34.4956600   7.9963490  51.8043530  34.5811200   5.9969950  55.8610970
  34.2054800   5.2297880  55.4292260  33.8514320   6.3792650  56.3485900
  17.3469110   3.5003450  53.8842010  16.4433190   3.7633650  53.7093670
  17.8309730   3.7714620  53.1041970  33.8562160   4.2227440  59.1618210
  34.3799640   3.7290090  58.5308380  34.4421580   4.3577800  59.9065780
  19.8896320   2.5568990  51.7936390  20.5988020   2.1352210  51.3083670
  19.1736260   2.6244220  51.1619740  33.3462130   3.4800790  55.1010620
  33.8421250   3.2471660  55.8859500  33.1478200   2.6412630  54.6848260
  32.6796470  14.7571870  57.4949540  33.2755540  14.4356440  56.8183960
  32.9374620  14.2843690  58.2862810  33.2308680  15.4067170  61.3247270
  32.7711650  16.1582980  60.9505290  32.6021140  14.6873640  61.2662070
  23.6604400  13.7155410  60.4995400  24.1769420  13.1042770  59.9743660
  24.3101780  14.2184190  60.9906410  18.3389300  14.8184800  56.9242750
  18.1711340  14.1855480  57.6224640  17.4723810  15.0244200  56.5736940
  19.9452000  13.5118030  54.3692890  19.4199620  13.8926060  53.6654850
  19.8696580  14.1368800  55.0902600  34.7017320  15.0705570  55.6906830
  34.8769510  14.3843310  55.0467750  34.0038890  15.5952620  55.2983500
  22.5444970  15.4600410  53.2442140  23.2763790  15.1759690  52.6966030
  22.8038640  15.2213690  54.1341520  21.7059760  11.5765140  53.2488470
  21.0768640  12.0450240  53.7974300  21.8207590  10.7314360  53.6834660
  29.1609480   5.6270800  39.3989670  29.0803530   4.7125410  39.1281380
  28.7473900   6.1237870  38.6929380  27.2927520   7.4049820  41.2798940
  26.5169620   6.9250260  41.5697510  27.9440450   6.7255470  41.1055100
  21.3093350   7.7169630  42.1574700  20.4778230   7.4618340  42.5571210
  21.9174330   7.7880400  42.8932620  31.3134950  11.8110010  40.0598070
  30.8516480  11.0397250  40.3885240  32.1260500  11.8376080  40.5650520
  21.2894610  11.7509720  42.3532720  21.5922650  10.8607460  42.1742940
  22.0338200  12.3079940  42.1254970  19.7185300   2.6771520  35.9417090
  18.8302000   3.0187490  35.8396970  20.0026490   2.4771840  35.0497920
  17.6818310   5.2777170  41.8256790  18.2534420   4.5099370  41.8260430
  17.6819850   5.5765930  40.9163400  27.5398260  14.0968020  39.6802060
  26.9209700  14.5525520  39.1096500  28.3950040  14.2519480  39.2791760
  26.7336510  10.0807010  41.2869100  26.6644790   9.1396950  41.1258230
  27.4956370  10.1708420  41.8591670  27.7641680   2.8877390  41.5138030
  28.1406500   2.0149270  41.4011700  27.6661190   3.2236090  40.6228470
  19.5429850   3.1822030  42.2208060  20.2239960   3.4460400  42.8395460
  19.2277900   2.3422900  42.5546070  23.7354420   4.2289390  41.3080650
  24.2432640   4.7270360  41.9485670  24.2667660   3.4524590  41.1320010
  35.8365350   2.3994580  45.0110000  35.1317520   2.7876290  44.4925110
  36.1023270   3.0944870  45.6130930  28.4061610   8.9807260  37.0733970
  27.7878880   9.4456710  36.5096690  28.9184860   9.6734740  37.4903480
  23.2693370   8.5083130  43.7517570  22.9362750   9.1352050  44.3938640
  23.4460050   9.0345010  42.9719240  31.7827280   2.3228210  41.2193910
  31.0782850   2.6113100  41.7997020  32.1439440   3.1328320  40.8593470
  22.4812470  10.4763930  45.5666750  23.0986470  11.1515010  45.2851200
  21.6205590  10.8851910  45.4754250  17.7744810   9.6663790  34.4473600
  17.3972790  10.1550890  33.7158500  18.0317880  10.3389070  35.0780130
  33.3990060  11.9403340  43.4821390  32.7153580  12.6102450  43.4738060
  33.9384350  12.1383990  42.7166250  34.8514200   1.7683000  41.6103120
  33.9039110   1.8021980  41.7418550  35.1764190   2.5821950  41.9952480
  30.9348800  13.7847470  42.1966570  30.9475960  13.3809760  41.3288830
  30.3824020  14.5594760  42.0928000  32.2294220  10.5063690  37.2856740
  32.1190550   9.5638020  37.4106160  32.2262470  10.8679330  38.1719500
  30.3334240   8.6877310  43.5249180  30.7503030   8.4737420  42.6902640
  31.0574060   8.9450100  44.0957800  27.7714500   6.1329010  36.6419230
  26.8443780   6.0666390  36.8707700  27.9239320   7.0709140  36.5274470
  27.7583580   2.4046010  33.6386390  26.8187250   2.5659970  33.7238850
  28.0766840   3.1231690  33.0922380  34.2796340   7.0864530  43.6165420
  33.4514970   7.1557620  43.1415550  34.8746820   7.6718840  43.1481250
  31.8011790   7.6949310  37.1454480  31.1824210   7.3568860  36.4980780
  31.7836240   7.0509070  37.8533670  31.2438350   3.8733850  44.5620290
  30.8309530   4.6987560  44.8160280  30.5114300   3.2878890  44.3696650
  23.3771140   6.6593750  39.4238960  22.9728140   5.9471000  38.9284860
  23.4634260   6.3146990  40.3127000  23.8452840  10.3461310  41.5878170
  23.5481130   9.7406780  40.9085950  24.7952660  10.3838620  41.4767530
  22.0899760   3.4336960  43.2038000  22.6414350   3.5432300  42.4291250
  22.6043270   3.8074560  43.9193230  31.9338450  13.9193180  45.2501270
  31.4569010  14.7265370  45.0573880  31.2500240  13.2671510  45.4027480
  22.9371270  10.0843000  48.2385970  22.0399800  10.3082970  48.4859370
  22.9624140  10.2077940  47.2897370  29.9776490   6.9336120  34.1527230
  30.4169770   6.0958550  34.0065050  30.6904910   7.5665520  34.2391370
  21.7642490   6.9556320  46.8143340  21.6250260   7.8279120  47.1830740
  20.8823850   6.6129130  46.6691280  28.0871870  11.8732190  38.1208470
  28.5267780  12.6156520  37.7063860  28.0258760  12.1158760  39.0447430
  23.5622840  12.8978020  49.0228490  23.5338270  13.3020970  48.1556920
  23.3987810  11.9688380  48.8600090  20.0775770   5.5538730  36.9245610
  19.9573370   6.2800820  36.3126880  19.7676660   4.7841640  36.4473520
  35.5137660  13.6805120  50.3192660  35.9897380  14.1588010  50.9981740
  36.1344820  13.6122610  49.5938160  17.7161140   8.7253870  42.7314250
  17.7941560   8.8602640  41.7869970  18.3302820   8.0169760  42.9242370
  18.9608770  10.4254060  39.1420430  18.5536850  10.5668650  38.2874030
  19.8521780  10.1414220  38.9391640  34.9170910  10.8717970  47.4792670
  35.0433970  10.6329850  46.5609850  34.9592290  10.0402510  47.9514750
  28.7787650  14.5745970  46.0487480  29.2932320  14.4853980  46.8509910
  27.9356730  14.9205670  46.3415390  30.7542050  14.8601310  35.4771480
  30.5943190  14.5704250  36.3753310  30.5888760  14.0841440  34.9416710
  23.2330430  14.6399840  37.2543100  23.0572910  13.7235380  37.0410900
  22.3786170  14.9987130  37.4940900  30.4568180  12.3688870  34.0369480
  29.7633340  12.3666160  33.3771760  31.1991040  11.9448190  33.6063650
  30.0218110  13.9951580  38.1117970  30.4775060  13.2140960  38.4256590
  30.3610630  14.7058400  38.6559150  34.7694920   2.9250430  48.4442410
  34.1539190   3.4330100  47.9157870  34.4491340   2.0248760  48.3868350
  17.7720660   9.7668040  45.2708710  17.9351700   9.2973400  44.4528080
  18.2373110   9.2591600  45.9357550  31.8313750   2.9851270  47.0401260
  30.9807340   2.6857020  47.3610330  31.6715540   3.2293280  46.1285080
  28.9263460   4.4853020  49.1400050  29.2516870   3.6516770  48.8002280
  29.7143790   5.0081540  49.2878380  22.3353650   4.0207370  38.0350530
  22.1094570   3.8044540  38.9397150  21.5546180   4.4535830  37.6896500
  29.5651410   4.0270740  36.6341180  28.9660300   4.7506540  36.4504800
  30.1131020   3.9647520  35.8517630  24.7752860   4.9192950  48.7010800
  24.6796460   3.9787680  48.5511200  25.6184840   5.1408020  48.3058870
  28.1716280   2.6634280  38.6644460  28.5645850   2.9806480  37.8513150
  28.5333130   1.7846160  38.7788980  17.3950680   3.1955200  32.0977380
  17.3125350   4.1385960  32.2392370  17.0433740   3.0530110  31.2189730
  28.7571420   5.2540030  42.7595240  28.0252540   5.7626840  43.1085340
  28.3595760   4.4370010  42.4584020  25.2568960   2.9306310  34.1554490
  25.3781780   2.8892790  35.1040310  24.8717470   3.7930460  34.0001220
  24.2690460   5.2407450  33.5537790  23.7007360   4.7925700  32.9273700
  24.9779460   5.6000230  33.0202940  19.3459640   9.1419470  47.4304520
  18.9614430   8.5013140  48.0287480  19.6571830   9.8455590  47.9999250
  25.4956780   5.9896010  42.9113140  25.8626910   5.5154580  43.6574480
  25.3061840   6.8637580  43.2521480  23.2856150   5.0304650  45.2297350
  22.9813220   5.9096630  45.4547710  24.2402610   5.0904440  45.2654790
  21.8137940   9.2365640  35.8264200  21.0400200   8.6963260  35.6662920
  22.5432570   8.7172250  35.4881960  32.5725920   8.2331000  41.6190590
  33.2925040   8.7286290  41.2286700  32.3707740   7.5548890  40.9744460
  27.9544720   8.3040060  47.5059590  27.8882030   7.3835730  47.2517180
  27.3249860   8.4015500  48.2204230  30.7484250   3.9988610  34.0582140
  31.6363870   4.3105840  33.8833480  30.7189340   3.1260860  33.6662720
  21.8575340   8.9046020  39.4643010  22.3754010   8.1014280  39.4099900
  21.4059360   8.8425160  40.3059840  26.7444840  10.1712300  34.7370310
  27.0860540  10.9154530  34.2413630  25.9157550  10.4843420  35.0995140
  19.3419880   5.8707390  46.3768710  18.9834820   6.5361240  46.9642050
  19.0474440   5.0390940  46.7481330  22.5433000   6.3291630  49.2608260
  22.2433140   6.4748810  48.3636080  23.3144240   5.7696920  49.1681650
  27.8861450  11.1260630  47.2563390  27.9005990  10.1941590  47.0382300
  27.1786550  11.2120390  47.8953160  33.0198520   5.3100450  33.5262000
  32.9362240   5.7414670  32.6758440  33.7392710   5.7698800  33.9588820
  34.0972660   7.7667970  46.6031970  33.3720850   8.3596750  46.4061360
  34.6248120   7.7591510  45.8045340  34.0485770  12.1642710  36.2544130
  33.4061930  11.5098330  36.5287850  33.6616430  12.5697800  35.4784800
  29.6272250   9.4928140  40.1015820  29.9796070   8.8956270  39.4417190
  28.7434580   9.1672370  40.2724070  25.7135530  10.2525830  37.5086230
  26.4006660  10.7995040  37.8893820  24.9267950  10.7966560  37.5435840
  17.8527930   5.8698650  33.0003310  18.7222780   6.1523450  33.2839230
  17.3618250   6.6834520  32.8852120  25.0162740   7.2571860  37.1211590
  25.4725520   8.0677110  37.3471780  24.6650950   6.9395000  37.9530080
  27.3195350  12.7678200  44.3503890  27.9637570  12.9737580  45.0277310
  27.6824790  12.0066600  43.8974740  28.5927430  10.7710550  43.0681340
  29.2349660  10.0703710  43.1813510  29.1176780  11.5508990  42.8878230
  32.4383150  11.0559170  32.7920480  32.2120730  10.3389610  33.3845120
  32.0479350  10.8071610  31.9542230  30.3665050  11.5705450  46.2717400
  30.7021290  12.1572140  46.9495320  29.4465390  11.4398160  46.5015190
  18.2199180  15.0826030  33.5664940  18.5796820  15.6815370  32.9122210
  18.0791520  15.6285920  34.3399970  32.0199400   8.9731110  34.4534640
  31.7321100   9.4343800  35.2412520  32.8151570   8.5128880  34.7218860
  18.2041040  13.3480890  48.0407340  18.3132160  12.4075630  47.9002730
  17.5521600  13.6135640  47.3921070  26.1953630  11.6196780  49.4405460
  25.8750500  10.9006020  49.9851150  25.5211990  12.2951850  49.5141520
  24.2367800  12.4657230  34.3838610  24.2277900  13.1986920  33.7683120
  23.3166160  12.2188810  34.4765570  19.8374440   7.6872120  35.1285370
  19.2302390   8.4271020  35.1380670  20.3123790   7.7771480  34.3023570
  27.2227400  12.5285470  33.0463800  27.3239380  12.3249460  32.1165780
  26.3229140  12.2743750  33.2511580  24.7453290   3.0865830  37.0287700
  24.0369440   3.5552170  37.4701310  25.0297770   2.4287840  37.6632890
  26.3709220   4.5062530  45.0280230  26.8694470   4.9808350  45.6932080
  26.5132170   3.5826050  45.2350260  25.8645510  15.0471790  37.7411470
  26.1187010  15.0093180  36.8190840  24.9157990  14.9205120  37.7339720
  31.8698090   5.9663670  39.3169980  30.9288230   5.9813900  39.4917670
  32.1842160   5.1799630  39.7630280  21.8479730   7.6483270  32.8773940
  22.6143000   7.5364630  33.4399370  21.9254420   6.9521240  32.2250710
  20.5426490   5.0808340  33.5606830  20.6230080   4.1335850  33.6724230
  21.4346240   5.4115220  33.6667490  33.8723670  13.1372520  40.9924240
  33.9971090  13.9603690  41.4648050  34.7389230  12.9263250  40.6448390
  21.3441200  15.2303730  40.6641370  22.0803680  14.6819190  40.9349940
  21.7282120  16.0959740  40.5247360  18.2286680  11.2977300  36.5382880
  17.3026460  11.5398440  36.5288290  18.6943110  12.1251560  36.4167630
  20.3499480  14.4149800  49.8526950  21.1512210  14.7361850  50.2662350
  19.8351300  14.0545380  50.5746860  24.4543510  14.4034040  32.4866940
  25.2472120  14.6922870  32.0348730  23.9347860  13.9726210  31.8079420
  29.1864110  10.5229670  49.8002360  28.5802270  10.5461270  49.0598110
  28.8818220   9.7912710  50.3369610  30.6164480  14.2509960  48.4111770
  31.5686230  14.1667980  48.3612010  30.4692700  14.9151670  49.0845560
  33.5073680  13.6304170  33.9103680  33.2215190  13.2169310  33.0957860
  33.3093230  14.5591880  33.7904200  18.0697290   6.9023260  48.7963000
  18.5736310   6.3230540  49.3679230  17.3304710   7.1863490  49.3339370
  24.9720910   9.6237450  32.3509290  24.8671550   9.0089800  33.0770670
  24.8045130   9.1003340  31.5672300  25.1235230   8.3094250  48.3298520
  24.3580900   8.8779250  48.2453190  25.3051190   8.0170460  47.4366750
  28.2123640   8.6857480  32.9551280  27.6633740   9.1326780  33.5994020
  28.8342900   8.1806730  33.4788950  32.2658580  10.0399580  48.8873540
  33.0068050  10.3775340  48.3841000  31.5031260  10.2091640  48.3343310
  20.1020370   5.0452850  49.6913070  20.1425710   4.7466720  50.5998300
  20.9565870   5.4460460  49.5320590  23.8798760   7.6448400  34.8516580
  24.3015180   7.4788270  35.6947970  24.0049600   6.8348630  34.3571720
  22.0426180   3.6244950  47.6587560  21.5122640   3.1335900  47.0310900
  22.7114250   4.0529150  47.1245490  26.3926400   6.6686010  32.0993680
  26.9132060   5.9535030  31.7334830  27.0394800   7.3071880  32.3994190
  30.9404240   8.0914410  47.4228750  31.3545260   8.2459490  48.2719170
  30.0055240   8.2169630  47.5854530  31.4126410   5.4310570  49.4267900
  31.9947180   4.6762890  49.3388380  31.5888180   5.9618010  48.6499380
  25.7019470   8.0434890  45.3924680  26.1207580   8.8867620  45.2200920
  24.7828100   8.1806930  45.1631460  28.0383370   5.7751070  46.7762520
  28.1579580   5.1792210  47.5157360  28.8977370   5.8120760  46.3563820
  30.3771270   6.3288260  45.3525030  29.8506490   6.8530880  44.7490170
  30.7202610   6.9615650  45.9834760  22.7757660   3.7181630  31.7974740
  22.5746720   2.8548990  32.1588080  22.6049710   3.6314990  30.8596340
  23.5526890  14.3487900  46.5082410  23.0147980  15.0733960  46.1891110
  23.8060850  13.8718240  45.7179750  24.8052140   2.3172420  48.0338340
  25.3951830   2.0088270  48.7216160  23.9872380   1.8452170  48.1898240
  26.4089100  15.5839110  46.7669060  26.3347800  16.4874250  47.0741430
  25.5067940  15.2651010  46.7391130  26.9574430  14.7497620  34.3895420
  27.8525220  15.0882590  34.4114180  26.9892060  14.0277030  33.7619700
  20.5970590  10.1224670  32.6182420  21.0345460  10.6654340  33.2740000
  21.0818320   9.2971620  32.6278760  17.8116390  12.9113700  40.0702680
  18.1419400  12.0434760  39.8381320  18.2407390  13.1172220  40.9007640
  22.4078310  11.2422710  37.7304650  22.1073850  11.1187680  38.6308560
  22.3015800  10.3831300  37.3220380  18.3006600  13.7784290  42.8084310
  17.8637590  13.9585090  43.6408460  18.8684280  14.5358910  42.6666030
  33.9368780  13.2801290  47.0961620  33.3370770  13.3393850  46.3525540
  34.0662680  12.3406270  47.2258470  35.1770230  11.0219110  32.4331330
  34.3463190  11.0895760  32.9038560  35.3542060  11.9123230  32.1298190
  34.6326690   7.7666590  34.9365530  35.3945600   8.3363240  35.0425220
  34.6481060   7.1993790  35.7073840  18.1331030   6.2904520  39.1673190
  17.4779870   6.0216160  38.5232890  18.9708980   6.1809000  38.7175170
  35.6386660   8.6216690  39.7807460  36.0095490   7.8384010  39.3743430
  36.2788590   9.3105790  39.6024760  32.6220420  10.0053270  45.1937780
  31.8080260  10.4350430  45.4563570  33.0294620  10.6171680  44.5806830
  34.6845860   8.0600960  32.0938050  34.9594700   8.9679840  31.9657270
  34.4956600   7.9963490  33.0300040  34.5811200   5.9969950  37.0867480
  34.2054800   5.2297880  36.6548770  33.8514320   6.3792650  37.5742410
  19.1706960   6.6757090  43.7076530  19.5380000   6.5884490  44.5872550
  18.6017780   5.9123640  43.6083390  33.9710820   5.1441470  46.7207000
  33.7396910   4.9154220  45.8204950  34.2315370   6.0641020  46.6751890
  18.7222960   3.5866180  47.6134950  17.8279010   3.5532940  47.9528660
  19.2620510   3.7852970  48.3786200  17.3469110   3.5003450  35.1098520
  16.4433190   3.7633650  34.9350180  17.8309730   3.7714620  34.3298480
  33.8562160   4.2227440  40.3874720  34.3799640   3.7290090  39.7564890
  34.4421580   4.3577800  41.1322290  34.0351880   4.3067310  43.9094270
  33.0854590   4.2730850  44.0239260  34.2164890   5.2167420  43.6744040
  19.8896320   2.5568990  33.0192900  20.5988020   2.1352210  32.5340180
  19.1736260   2.6244220  32.3876250  33.3462130   3.4800790  36.3267130
  33.8421250   3.2471660  37.1116010  33.1478200   2.6412630  35.9104770
  32.6796470  14.7571870  38.7206050  33.2755540  14.4356440  38.0440470
  32.9374620  14.2843690  39.5119320  20.5859040  11.1889780  48.8696680
  20.5428670  10.8182690  49.7511140  20.7170050  12.1267350  49.0098500
  24.2865070  12.7449370  44.4706400  24.0456430  13.0123930  43.5836920
  25.2267710  12.9155100  44.5257260  35.5469230  14.7643750  45.2717040
  35.0527510  15.1612620  44.5544170  34.9382520  14.1392960  45.6654320
  20.4247070  14.1352030  45.9894460  19.8307390  14.0036730  46.7284500
  20.4170910  13.2990170  45.5236560  33.2308680  15.4067170  42.5503780
  32.7711650  16.1582980  42.1761800  32.6021140  14.6873640  42.4918580
  20.0559300  11.5010410  44.9402500  19.3293360  10.8815700  44.8728450
  20.1168450  11.8951020  44.0700580  23.6604400  13.7155410  41.7251910
  24.1769420  13.1042770  41.2000170  24.3101780  14.2184190  42.2162920
  26.3999900  14.6063900  42.5520890  26.6877710  14.3518200  41.6753900
  26.9123120  14.0541260  43.1426460  18.3389300  14.8184800  38.1499260
  18.1711340  14.1855480  38.8481150  17.4723810  15.0244200  37.7993450
  19.9452000  13.5118030  35.5949400  19.4199620  13.8926060  34.8911360
  19.8696580  14.1368800  36.3159110  26.4672260  15.5280000  49.9189090
  27.3939570  15.2924270  49.9625050  26.4522690  16.3552000  49.4375120
  34.7017320  15.0705570  36.9163340  34.8769510  14.3843310  36.2724260
  34.0038890  15.5952620  36.5240010  22.5444970  15.4600410  34.4698650
  23.2763790  15.1759690  33.9222540  22.8038640  15.2213690  35.3598030
  21.7059760  11.5765140  34.4744980  21.0768640  12.0450240  35.0230810
  21.8207590  10.7314360  34.9091170  33.0349820  14.7549860  49.7430130
  33.8275140  14.2599090  49.5356090  33.3282970  15.4340000  50.3505740
  29.1609480   5.6270800  20.6246180  29.0803530   4.7125410  20.3537890
  28.7473900   6.1237870  19.9185890  27.2927520   7.4049820  22.5055450
  26.5169620   6.9250260  22.7954020  27.9440450   6.7255470  22.3311610
  21.3093350   7.7169630  23.3831210  20.4778230   7.4618340  23.7827720
  21.9174330   7.7880400  24.1189130  31.3134950  11.8110010  21.2854580
  30.8516480  11.0397250  21.6141750  32.1260500  11.8376080  21.7907030
  21.2894610  11.7509720  23.5789230  21.5922650  10.8607460  23.3999450
  22.0338200  12.3079940  23.3511480  19.7185300   2.6771520  17.1673600
  18.8302000   3.0187490  17.0653480  20.0026490   2.4771840  16.2754430
  17.6818310   5.2777170  23.0513300  18.2534420   4.5099370  23.0516940
  17.6819850   5.5765930  22.1419910  27.5398260  14.0968020  20.9058570
  26.9209700  14.5525520  20.3353010  28.3950040  14.2519480  20.5048270
  26.7336510  10.0807010  22.5125610  26.6644790   9.1396950  22.3514740
  27.4956370  10.1708420  23.0848180  27.7641680   2.8877390  22.7394540
  28.1406500   2.0149270  22.6268210  27.6661190   3.2236090  21.8484980
  19.5429850   3.1822030  23.4464570  20.2239960   3.4460400  24.0651970
  19.2277900   2.3422900  23.7802580  23.7354420   4.2289390  22.5337160
  24.2432640   4.7270360  23.1742180  24.2667660   3.4524590  22.3576520
  35.8365350   2.3994580  26.2366510  35.1317520   2.7876290  25.7181620
  36.1023270   3.0944870  26.8387440  28.4061610   8.9807260  18.2990480
  27.7878880   9.4456710  17.7353200  28.9184860   9.6734740  18.7159990
  23.2693370   8.5083130  24.9774080  22.9362750   9.1352050  25.6195150
  23.4460050   9.0345010  24.1975750  31.7827280   2.3228210  22.4450420
  31.0782850   2.6113100  23.0253530  32.1439440   3.1328320  22.0849980
  22.4812470  10.4763930  26.7923260  23.0986470  11.1515010  26.5107710
  21.6205590  10.8851910  26.7010760  17.7744810   9.6663790  15.6730110
  17.3972790  10.1550890  14.9415010  18.0317880  10.3389070  16.3036640
  33.3990060  11.9403340  24.7077900  32.7153580  12.6102450  24.6994570
  33.9384350  12.1383990  23.9422760  34.8514200   1.7683000  22.8359630
  33.9039110   1.8021980  22.9675060  35.1764190   2.5821950  23.2208990
  30.9348800  13.7847470  23.4223080  30.9475960  13.3809760  22.5545340
  30.3824020  14.5594760  23.3184510  32.2294220  10.5063690  18.5113250
  32.1190550   9.5638020  18.6362670  32.2262470  10.8679330  19.3976010
  30.3334240   8.6877310  24.7505690  30.7503030   8.4737420  23.9159150
  31.0574060   8.9450100  25.3214310  27.7714500   6.1329010  17.8675740
  26.8443780   6.0666390  18.0964210  27.9239320   7.0709140  17.7530980
  27.7583580   2.4046010  14.8642900  26.8187250   2.5659970  14.9495360
  28.0766840   3.1231690  14.3178890  34.2796340   7.0864530  24.8421930
  33.4514970   7.1557620  24.3672060  34.8746820   7.6718840  24.3737760
  31.8011790   7.6949310  18.3710990  31.1824210   7.3568860  17.7237290
  31.7836240   7.0509070  19.0790180  31.2438350   3.8733850  25.7876800
  30.8309530   4.6987560  26.0416790  30.5114300   3.2878890  25.5953160
  23.3771140   6.6593750  20.6495470  22.9728140   5.9471000  20.1541370
  23.4634260   6.3146990  21.5383510  23.8452840  10.3461310  22.8134680
  23.5481130   9.7406780  22.1342460  24.7952660  10.3838620  22.7024040
  22.0899760   3.4336960  24.4294510  22.6414350   3.5432300  23.6547760
  22.6043270   3.8074560  25.1449740  31.9338450  13.9193180  26.4757780
  31.4569010  14.7265370  26.2830390  31.2500240  13.2671510  26.6283990
  22.9371270  10.0843000  29.4642480  22.0399800  10.3082970  29.7115880
  22.9624140  10.2077940  28.5153880  29.9776490   6.9336120  15.3783740
  30.4169770   6.0958550  15.2321560  30.6904910   7.5665520  15.4647880
  21.7642490   6.9556320  28.0399850  21.6250260   7.8279120  28.4087250
  20.8823850   6.6129130  27.8947790  28.0871870  11.8732190  19.3464980
  28.5267780  12.6156520  18.9320370  28.0258760  12.1158760  20.2703940
  23.5622840  12.8978020  30.2485000  23.5338270  13.3020970  29.3813430
  23.3987810  11.9688380  30.0856600  20.0775770   5.5538730  18.1502120
  19.9573370   6.2800820  17.5383390  19.7676660   4.7841640  17.6730030
  35.5137660  13.6805120  31.5449170  35.9897380  14.1588010  32.2238250
  36.1344820  13.6122610  30.8194670  17.7161140   8.7253870  23.9570760
  17.7941560   8.8602640  23.0126480  18.3302820   8.0169760  24.1498880
  18.9608770  10.4254060  20.3676940  18.5536850  10.5668650  19.5130540
  19.8521780  10.1414220  20.1648150  34.9170910  10.8717970  28.7049180
  35.0433970  10.6329850  27.7866360  34.9592290  10.0402510  29.1771260
  28.7787650  14.5745970  27.2743990  29.2932320  14.4853980  28.0766420
  27.9356730  14.9205670  27.5671900  30.7542050  14.8601310  16.7027990
  30.5943190  14.5704250  17.6009820  30.5888760  14.0841440  16.1673220
  23.2330430  14.6399840  18.4799610  23.0572910  13.7235380  18.2667410
  22.3786170  14.9987130  18.7197410  30.4568180  12.3688870  15.2625990
  29.7633340  12.3666160  14.6028270  31.1991040  11.9448190  14.8320160
  30.0218110  13.9951580  19.3374480  30.4775060  13.2140960  19.6513100
  30.3610630  14.7058400  19.8815660  34.7694920   2.9250430  29.6698920
  34.1539190   3.4330100  29.1414380  34.4491340   2.0248760  29.6124860
  17.7720660   9.7668040  26.4965220  17.9351700   9.2973400  25.6784590
  18.2373110   9.2591600  27.1614060  31.8313750   2.9851270  28.2657770
  30.9807340   2.6857020  28.5866840  31.6715540   3.2293280  27.3541590
  28.9263460   4.4853020  30.3656560  29.2516870   3.6516770  30.0258790
  29.7143790   5.0081540  30.5134890  22.3353650   4.0207370  19.2607040
  22.1094570   3.8044540  20.1653660  21.5546180   4.4535830  18.9153010
  29.5651410   4.0270740  17.8597690  28.9660300   4.7506540  17.6761310
  30.1131020   3.9647520  17.0774140  24.7752860   4.9192950  29.9267310
  24.6796460   3.9787680  29.7767710  25.6184840   5.1408020  29.5315380
  28.1716280   2.6634280  19.8900970  28.5645850   2.9806480  19.0769660
  28.5333130   1.7846160  20.0045490  17.3950680   3.1955200  13.3233890
  17.3125350   4.1385960  13.4648880  17.0433740   3.0530110  12.4446240
  28.7571420   5.2540030  23.9851750  28.0252540   5.7626840  24.3341850
  28.3595760   4.4370010  23.6840530  25.2568960   2.9306310  15.3811000
  25.3781780   2.8892790  16.3296820  24.8717470   3.7930460  15.2257730
  24.2690460   5.2407450  14.7794300  23.7007360   4.7925700  14.1530210
  24.9779460   5.6000230  14.2459450  19.3459640   9.1419470  28.6561030
  18.9614430   8.5013140  29.2543990  19.6571830   9.8455590  29.2255760
  25.4956780   5.9896010  24.1369650  25.8626910   5.5154580  24.8830990
  25.3061840   6.8637580  24.4777990  23.2856150   5.0304650  26.4553860
  22.9813220   5.9096630  26.6804220  24.2402610   5.0904440  26.4911300
  21.8137940   9.2365640  17.0520710  21.0400200   8.6963260  16.8919430
  22.5432570   8.7172250  16.7138470  32.5725920   8.2331000  22.8447100
  33.2925040   8.7286290  22.4543210  32.3707740   7.5548890  22.2000970
  27.9544720   8.3040060  28.7316100  27.8882030   7.3835730  28.4773690
  27.3249860   8.4015500  29.4460740  30.7484250   3.9988610  15.2838650
  31.6363870   4.3105840  15.1089990  30.7189340   3.1260860  14.8919230
  21.8575340   8.9046020  20.6899520  22.3754010   8.1014280  20.6356410
  21.4059360   8.8425160  21.5316350  26.7444840  10.1712300  15.9626820
  27.0860540  10.9154530  15.4670140  25.9157550  10.4843420  16.3251650
  19.3419880   5.8707390  27.6025220  18.9834820   6.5361240  28.1898560
  19.0474440   5.0390940  27.9737840  22.5433000   6.3291630  30.4864770
  22.2433140   6.4748810  29.5892590  23.3144240   5.7696920  30.3938160
  27.8861450  11.1260630  28.4819900  27.9005990  10.1941590  28.2638810
  27.1786550  11.2120390  29.1209670  33.0198520   5.3100450  14.7518510
  32.9362240   5.7414670  13.9014950  33.7392710   5.7698800  15.1845330
  34.0972660   7.7667970  27.8288480  33.3720850   8.3596750  27.6317870
  34.6248120   7.7591510  27.0301850  34.0485770  12.1642710  17.4800640
  33.4061930  11.5098330  17.7544360  33.6616430  12.5697800  16.7041310
  29.6272250   9.4928140  21.3272330  29.9796070   8.8956270  20.6673700
  28.7434580   9.1672370  21.4980580  25.7135530  10.2525830  18.7342740
  26.4006660  10.7995040  19.1150330  24.9267950  10.7966560  18.7692350
  17.8527930   5.8698650  14.2259820  18.7222780   6.1523450  14.5095740
  17.3618250   6.6834520  14.1108630  25.0162740   7.2571860  18.3468100
  25.4725520   8.0677110  18.5728290  24.6650950   6.9395000  19.1786590
  27.3195350  12.7678200  25.5760400  27.9637570  12.9737580  26.2533820
  27.6824790  12.0066600  25.1231250  28.5927430  10.7710550  24.2937850
  29.2349660  10.0703710  24.4070020  29.1176780  11.5508990  24.1134740
  32.4383150  11.0559170  14.0176990  32.2120730  10.3389610  14.6101630
  32.0479350  10.8071610  13.1798740  30.3665050  11.5705450  27.4973910
  30.7021290  12.1572140  28.1751830  29.4465390  11.4398160  27.7271700
  18.2199180  15.0826030  14.7921450  18.5796820  15.6815370  14.1378720
  18.0791520  15.6285920  15.5656480  32.0199400   8.9731110  15.6791150
  31.7321100   9.4343800  16.4669030  32.8151570   8.5128880  15.9475370
  18.2041040  13.3480890  29.2663850  18.3132160  12.4075630  29.1259240
  17.5521600  13.6135640  28.6177580  26.1953630  11.6196780  30.6661970
  25.8750500  10.9006020  31.2107660  25.5211990  12.2951850  30.7398030
  24.2367800  12.4657230  15.6095120  24.2277900  13.1986920  14.9939630
  23.3166160  12.2188810  15.7022080  19.8374440   7.6872120  16.3541880
  19.2302390   8.4271020  16.3637180  20.3123790   7.7771480  15.5280080
  27.2227400  12.5285470  14.2720310  27.3239380  12.3249460  13.3422290
  26.3229140  12.2743750  14.4768090  24.7453290   3.0865830  18.2544210
  24.0369440   3.5552170  18.6957820  25.0297770   2.4287840  18.8889400
  26.3709220   4.5062530  26.2536740  26.8694470   4.9808350  26.9188590
  26.5132170   3.5826050  26.4606770  25.8645510  15.0471790  18.9667980
  26.1187010  15.0093180  18.0447350  24.9157990  14.9205120  18.9596230
  31.8698090   5.9663670  20.5426490  30.9288230   5.9813900  20.7174180
  32.1842160   5.1799630  20.9886790  21.8479730   7.6483270  14.1030450
  22.6143000   7.5364630  14.6655880  21.9254420   6.9521240  13.4507220
  20.5426490   5.0808340  14.7863340  20.6230080   4.1335850  14.8980740
  21.4346240   5.4115220  14.8924000  33.8723670  13.1372520  22.2180750
  33.9971090  13.9603690  22.6904560  34.7389230  12.9263250  21.8704900
  21.3441200  15.2303730  21.8897880  22.0803680  14.6819190  22.1606450
  21.7282120  16.0959740  21.7503870  18.2286680  11.2977300  17.7639390
  17.3026460  11.5398440  17.7544800  18.6943110  12.1251560  17.6424140
  20.3499480  14.4149800  31.0783460  21.1512210  14.7361850  31.4918860
  19.8351300  14.0545380  31.8003370  24.4543510  14.4034040  13.7123450
  25.2472120  14.6922870  13.2605240  23.9347860  13.9726210  13.0335930
  29.1864110  10.5229670  31.0258870  28.5802270  10.5461270  30.2854620
  28.8818220   9.7912710  31.5626120  30.6164480  14.2509960  29.6368280
  31.5686230  14.1667980  29.5868520  30.4692700  14.9151670  30.3102070
  33.5073680  13.6304170  15.1360190  33.2215190  13.2169310  14.3214370
  33.3093230  14.5591880  15.0160710  18.0697290   6.9023260  30.0219510
  18.5736310   6.3230540  30.5935740  17.3304710   7.1863490  30.5595880
  24.9720910   9.6237450  13.5765800  24.8671550   9.0089800  14.3027180
  24.8045130   9.1003340  12.7928810  25.1235230   8.3094250  29.5555030
  24.3580900   8.8779250  29.4709700  25.3051190   8.0170460  28.6623260
  28.2123640   8.6857480  14.1807790  27.6633740   9.1326780  14.8250530
  28.8342900   8.1806730  14.7045460  32.2658580  10.0399580  30.1130050
  33.0068050  10.3775340  29.6097510  31.5031260  10.2091640  29.5599820
  20.1020370   5.0452850  30.9169580  20.1425710   4.7466720  31.8254810
  20.9565870   5.4460460  30.7577100  23.8798760   7.6448400  16.0773090
  24.3015180   7.4788270  16.9204480  24.0049600   6.8348630  15.5828230
  22.0426180   3.6244950  28.8844070  21.5122640   3.1335900  28.2567410
  22.7114250   4.0529150  28.3502000  26.3926400   6.6686010  13.3250190
  26.9132060   5.9535030  12.9591340  27.0394800   7.3071880  13.6250700
  30.9404240   8.0914410  28.6485260  31.3545260   8.2459490  29.4975680
  30.0055240   8.2169630  28.8111040  31.4126410   5.4310570  30.6524410
  31.9947180   4.6762890  30.5644890  31.5888180   5.9618010  29.8755890
  25.7019470   8.0434890  26.6181190  26.1207580   8.8867620  26.4457430
  24.7828100   8.1806930  26.3887970  28.0383370   5.7751070  28.0019030
  28.1579580   5.1792210  28.7413870  28.8977370   5.8120760  27.5820330
  30.3771270   6.3288260  26.5781540  29.8506490   6.8530880  25.9746680
  30.7202610   6.9615650  27.2091270  22.7757660   3.7181630  13.0231250
  22.5746720   2.8548990  13.3844590  22.6049710   3.6314990  12.0852850
  23.5526890  14.3487900  27.7338920  23.0147980  15.0733960  27.4147620
  23.8060850  13.8718240  26.9436260  24.8052140   2.3172420  29.2594850
  25.3951830   2.0088270  29.9472670  23.9872380   1.8452170  29.4154750
  26.4089100  15.5839110  27.9925570  26.3347800  16.4874250  28.2997940
  25.5067940  15.2651010  27.9647640  26.9574430  14.7497620  15.6151930
  27.8525220  15.0882590  15.6370690  26.9892060  14.0277030  14.9876210
  20.5970590  10.1224670  13.8438930  21.0345460  10.6654340  14.4996510
  21.0818320   9.2971620  13.8535270  17.8116390  12.9113700  21.2959190
  18.1419400  12.0434760  21.0637830  18.2407390  13.1172220  22.1264150
  22.4078310  11.2422710  18.9561160  22.1073850  11.1187680  19.8565070
  22.3015800  10.3831300  18.5476890  18.3006600  13.7784290  24.0340820
  17.8637590  13.9585090  24.8664970  18.8684280  14.5358910  23.8922540
  33.9368780  13.2801290  28.3218130  33.3370770  13.3393850  27.5782050
  34.0662680  12.3406270  28.4514980  35.1770230  11.0219110  13.6587840
  34.3463190  11.0895760  14.1295070  35.3542060  11.9123230  13.3554700
  34.6326690   7.7666590  16.1622040  35.3945600   8.3363240  16.2681730
  34.6481060   7.1993790  16.9330350  18.1331030   6.2904520  20.3929700
  17.4779870   6.0216160  19.7489400  18.9708980   6.1809000  19.9431680
  35.6386660   8.6216690  21.0063970  36.0095490   7.8384010  20.5999940
  36.2788590   9.3105790  20.8281270  32.6220420  10.0053270  26.4194290
  31.8080260  10.4350430  26.6820080  33.0294620  10.6171680  25.8063340
  34.6845860   8.0600960  13.3194560  34.9594700   8.9679840  13.1913780
  34.4956600   7.9963490  14.2556550  34.5811200   5.9969950  18.3123990
  34.2054800   5.2297880  17.8805280  33.8514320   6.3792650  18.7998920
  19.1706960   6.6757090  24.9333040  19.5380000   6.5884490  25.8129060
  18.6017780   5.9123640  24.8339900  33.9710820   5.1441470  27.9463510
  33.7396910   4.9154220  27.0461460  34.2315370   6.0641020  27.9008400
  18.7222960   3.5866180  28.8391460  17.8279010   3.5532940  29.1785170
  19.2620510   3.7852970  29.6042710  17.3469110   3.5003450  16.3355030
  16.4433190   3.7633650  16.1606690  17.8309730   3.7714620  15.5554990
  33.8562160   4.2227440  21.6131230  34.3799640   3.7290090  20.9821400
  34.4421580   4.3577800  22.3578800  34.0351880   4.3067310  25.1350780
  33.0854590   4.2730850  25.2495770  34.2164890   5.2167420  24.9000550
  19.8896320   2.5568990  14.2449410  20.5988020   2.1352210  13.7596690
  19.1736260   2.6244220  13.6132760  33.3462130   3.4800790  17.5523640
  33.8421250   3.2471660  18.3372520  33.1478200   2.6412630  17.1361280
  32.6796470  14.7571870  19.9462560  33.2755540  14.4356440  19.2696980
  32.9374620  14.2843690  20.7375830  20.5859040  11.1889780  30.0953190
  20.5428670  10.8182690  30.9767650  20.7170050  12.1267350  30.2355010
  24.2865070  12.7449370  25.6962910  24.0456430  13.0123930  24.8093430
  25.2267710  12.9155100  25.7513770  35.5469230  14.7643750  26.4973550
  35.0527510  15.1612620  25.7800680  34.9382520  14.1392960  26.8910830
  20.4247070  14.1352030  27.2150970  19.8307390  14.0036730  27.9541010
  20.4170910  13.2990170  26.7493070  33.2308680  15.4067170  23.7760290
  32.7711650  16.1582980  23.4018310  32.6021140  14.6873640  23.7175090
  20.0559300  11.5010410  26.1659010  19.3293360  10.8815700  26.0984960
  20.1168450  11.8951020  25.2957090  23.6604400  13.7155410  22.9508420
  24.1769420  13.1042770  22.4256680  24.3101780  14.2184190  23.4419430
  26.3999900  14.6063900  23.7777400  26.6877710  14.3518200  22.9010410
  26.9123120  14.0541260  24.3682970  18.3389300  14.8184800  19.3755770
  18.1711340  14.1855480  20.0737660  17.4723810  15.0244200  19.0249960
  19.9452000  13.5118030  16.8205910  19.4199620  13.8926060  16.1167870
  19.8696580  14.1368800  17.5415620  26.4672260  15.5280000  31.1445600
  27.3939570  15.2924270  31.1881560  26.4522690  16.3552000  30.6631630
  34.7017320  15.0705570  18.1419850  34.8769510  14.3843310  17.4980770
  34.0038890  15.5952620  17.7496520  22.5444970  15.4600410  15.6955160
  23.2763790  15.1759690  15.1479050  22.8038640  15.2213690  16.5854540
  21.7059760  11.5765140  15.7001490  21.0768640  12.0450240  16.2487320
  21.8207590  10.7314360  16.1347680  33.0349820  14.7549860  30.9686640
  33.8275140  14.2599090  30.7612600  33.3282970  15.4340000  31.5762250
  27.2927520   7.4049820   3.7311960  26.5169620   6.9250260   4.0210530
  27.9440450   6.7255470   3.5568120  21.3093350   7.7169630   4.6087720
  20.4778230   7.4618340   5.0084230  21.9174330   7.7880400   5.3445640
  31.3134950  11.8110010   2.5111090  30.8516480  11.0397250   2.8398260
  32.1260500  11.8376080   3.0163540  21.2894610  11.7509720   4.8045740
  21.5922650  10.8607460   4.6255960  22.0338200  12.3079940   4.5767990
  17.6818310   5.2777170   4.2769810  18.2534420   4.5099370   4.2773450
  17.6819850   5.5765930   3.3676420  26.7336510  10.0807010   3.7382120
  26.6644790   9.1396950   3.5771250  27.4956370  10.1708420   4.3104690
  27.7641680   2.8877390   3.9651050  28.1406500   2.0149270   3.8524720
  27.6661190   3.2236090   3.0741490  19.5429850   3.1822030   4.6721080
  20.2239960   3.4460400   5.2908480  19.2277900   2.3422900   5.0059090
  23.7354420   4.2289390   3.7593670  24.2432640   4.7270360   4.3998690
  24.2667660   3.4524590   3.5833030  35.8365350   2.3994580   7.4623020
  35.1317520   2.7876290   6.9438130  36.1023270   3.0944870   8.0643950
  23.2693370   8.5083130   6.2030590  22.9362750   9.1352050   6.8451660
  23.4460050   9.0345010   5.4232260  31.7827280   2.3228210   3.6706930
  31.0782850   2.6113100   4.2510040  32.1439440   3.1328320   3.3106490
  22.4812470  10.4763930   8.0179770  23.0986470  11.1515010   7.7364220
  21.6205590  10.8851910   7.9267270  33.3990060  11.9403340   5.9334410
  32.7153580  12.6102450   5.9251080  33.9384350  12.1383990   5.1679270
  34.8514200   1.7683000   4.0616140  33.9039110   1.8021980   4.1931570
  35.1764190   2.5821950   4.4465500  30.9348800  13.7847470   4.6479590
  30.9475960  13.3809760   3.7801850  30.3824020  14.5594760   4.5441020
  30.3334240   8.6877310   5.9762200  30.7503030   8.4737420   5.1415660
  31.0574060   8.9450100   6.5470820  34.2796340   7.0864530   6.0678440
  33.4514970   7.1557620   5.5928570  34.8746820   7.6718840   5.5994270
  31.2438350   3.8733850   7.0133310  30.8309530   4.6987560   7.2673300
  30.5114300   3.2878890   6.8209670  23.8452840  10.3461310   4.0391190
  23.5481130   9.7406780   3.3598970  24.7952660  10.3838620   3.9280550
  22.0899760   3.4336960   5.6551020  22.6414350   3.5432300   4.8804270
  22.6043270   3.8074560   6.3706250  31.9338450  13.9193180   7.7014290
  31.4569010  14.7265370   7.5086900  31.2500240  13.2671510   7.8540500
  22.9371270  10.0843000  10.6898990  22.0399800  10.3082970  10.9372390
  22.9624140  10.2077940   9.7410390  21.7642490   6.9556320   9.2656360
  21.6250260   7.8279120   9.6343760  20.8823850   6.6129130   9.1204300
  23.5622840  12.8978020  11.4741510  23.5338270  13.3020970  10.6069940
  23.3987810  11.9688380  11.3113110  35.5137660  13.6805120  12.7705680
  35.9897380  14.1588010  13.4494760  36.1344820  13.6122610  12.0451180
  17.7161140   8.7253870   5.1827270  17.7941560   8.8602640   4.2382990
  18.3302820   8.0169760   5.3755390  34.9170910  10.8717970   9.9305690
  35.0433970  10.6329850   9.0122870  34.9592290  10.0402510  10.4027770
  28.7787650  14.5745970   8.5000500  29.2932320  14.4853980   9.3022930
  27.9356730  14.9205670   8.7928410  34.7694920   2.9250430  10.8955430
  34.1539190   3.4330100  10.3670890  34.4491340   2.0248760  10.8381370
  17.7720660   9.7668040   7.7221730  17.9351700   9.2973400   6.9041100
  18.2373110   9.2591600   8.3870570  31.8313750   2.9851270   9.4914280
  30.9807340   2.6857020   9.8123350  31.6715540   3.2293280   8.5798100
  28.9263460   4.4853020  11.5913070  29.2516870   3.6516770  11.2515300
  29.7143790   5.0081540  11.7391400  24.7752860   4.9192950  11.1523820
  24.6796460   3.9787680  11.0024220  25.6184840   5.1408020  10.7571890
  28.7571420   5.2540030   5.2108260  28.0252540   5.7626840   5.5598360
  28.3595760   4.4370010   4.9097040  19.3459640   9.1419470   9.8817540
  18.9614430   8.5013140  10.4800500  19.6571830   9.8455590  10.4512270
  25.4956780   5.9896010   5.3626160  25.8626910   5.5154580   6.1087500
  25.3061840   6.8637580   5.7034500  23.2856150   5.0304650   7.6810370
  22.9813220   5.9096630   7.9060730  24.2402610   5.0904440   7.7167810
  32.5725920   8.2331000   4.0703610  33.2925040   8.7286290   3.6799720
  32.3707740   7.5548890   3.4257480  27.9544720   8.3040060   9.9572610
  27.8882030   7.3835730   9.7030200  27.3249860   8.4015500  10.6717250
  21.8575340   8.9046020   1.9156030  22.3754010   8.1014280   1.8612920
  21.4059360   8.8425160   2.7572860  19.3419880   5.8707390   8.8281730
  18.9834820   6.5361240   9.4155070  19.0474440   5.0390940   9.1994350
  22.5433000   6.3291630  11.7121280  22.2433140   6.4748810  10.8149100
  23.3144240   5.7696920  11.6194670  27.8861450  11.1260630   9.7076410
  27.9005990  10.1941590   9.4895320  27.1786550  11.2120390  10.3466180
  34.0972660   7.7667970   9.0544990  33.3720850   8.3596750   8.8574380
  34.6248120   7.7591510   8.2558360  29.6272250   9.4928140   2.5528840
  29.9796070   8.8956270   1.8930210  28.7434580   9.1672370   2.7237090
  27.3195350  12.7678200   6.8016910  27.9637570  12.9737580   7.4790330
  27.6824790  12.0066600   6.3487760  28.5927430  10.7710550   5.5194360
  29.2349660  10.0703710   5.6326530  29.1176780  11.5508990   5.3391250
  30.3665050  11.5705450   8.7230420  30.7021290  12.1572140   9.4008340
  29.4465390  11.4398160   8.9528210  18.2041040  13.3480890  10.4920360
  18.3132160  12.4075630  10.3515750  17.5521600  13.6135640   9.8434090
  26.1953630  11.6196780  11.8918480  25.8750500  10.9006020  12.4364170
  25.5211990  12.2951850  11.9654540  26.3709220   4.5062530   7.4793250
  26.8694470   4.9808350   8.1445100  26.5132170   3.5826050   7.6863280
  31.8698090   5.9663670   1.7683000  30.9288230   5.9813900   1.9430690
  32.1842160   5.1799630   2.2143300  33.8723670  13.1372520   3.4437260
  33.9971090  13.9603690   3.9161070  34.7389230  12.9263250   3.0961410
  21.3441200  15.2303730   3.1154390  22.0803680  14.6819190   3.3862960
  21.7282120  16.0959740   2.9760380  20.3499480  14.4149800  12.3039970
  21.1512210  14.7361850  12.7175370  19.8351300  14.0545380  13.0259880
  29.1864110  10.5229670  12.2515380  28.5802270  10.5461270  11.5111130
  28.8818220   9.7912710  12.7882630  30.6164480  14.2509960  10.8624790
  31.5686230  14.1667980  10.8125030  30.4692700  14.9151670  11.5358580
  18.0697290   6.9023260  11.2476020  18.5736310   6.3230540  11.8192250
  17.3304710   7.1863490  11.7852390  25.1235230   8.3094250  10.7811540
  24.3580900   8.8779250  10.6966210  25.3051190   8.0170460   9.8879770
  32.2658580  10.0399580  11.3386560  33.0068050  10.3775340  10.8354020
  31.5031260  10.2091640  10.7856330  20.1020370   5.0452850  12.1426090
  20.1425710   4.7466720  13.0511320  20.9565870   5.4460460  11.9833610
  22.0426180   3.6244950  10.1100580  21.5122640   3.1335900   9.4823920
  22.7114250   4.0529150   9.5758510  30.9404240   8.0914410   9.8741770
  31.3545260   8.2459490  10.7232190  30.0055240   8.2169630  10.0367550
  31.4126410   5.4310570  11.8780920  31.9947180   4.6762890  11.7901400
  31.5888180   5.9618010  11.1012400  25.7019470   8.0434890   7.8437700
  26.1207580   8.8867620   7.6713940  24.7828100   8.1806930   7.6144480
  28.0383370   5.7751070   9.2275540  28.1579580   5.1792210   9.9670380
  28.8977370   5.8120760   8.8076840  30.3771270   6.3288260   7.8038050
  29.8506490   6.8530880   7.2003190  30.7202610   6.9615650   8.4347780
  23.5526890  14.3487900   8.9595430  23.0147980  15.0733960   8.6404130
  23.8060850  13.8718240   8.1692770  24.8052140   2.3172420  10.4851360
  25.3951830   2.0088270  11.1729180  23.9872380   1.8452170  10.6411260
  26.4089100  15.5839110   9.2182080  26.3347800  16.4874250   9.5254450
  25.5067940  15.2651010   9.1904150  17.8116390  12.9113700   2.5215700
  18.1419400  12.0434760   2.2894340  18.2407390  13.1172220   3.3520660
  18.3006600  13.7784290   5.2597330  17.8637590  13.9585090   6.0921480
  18.8684280  14.5358910   5.1179050  33.9368780  13.2801290   9.5474640
  33.3370770  13.3393850   8.8038560  34.0662680  12.3406270   9.6771490
  35.6386660   8.6216690   2.2320480  36.0095490   7.8384010   1.8256450
  36.2788590   9.3105790   2.0537780  32.6220420  10.0053270   7.6450800
  31.8080260  10.4350430   7.9076590  33.0294620  10.6171680   7.0319850
  19.1706960   6.6757090   6.1589550  19.5380000   6.5884490   7.0385570
  18.6017780   5.9123640   6.0596410  33.9710820   5.1441470   9.1720020
  33.7396910   4.9154220   8.2717970  34.2315370   6.0641020   9.1264910
  18.7222960   3.5866180  10.0647970  17.8279010   3.5532940  10.4041680
  19.2620510   3.7852970  10.8299220  33.8562160   4.2227440   2.8387740
  34.3799640   3.7290090   2.2077910  34.4421580   4.3577800   3.5835310
  34.0351880   4.3067310   6.3607290  33.0854590   4.2730850   6.4752280
  34.2164890   5.2167420   6.1257060  20.5859040  11.1889780  11.3209700
  20.5428670  10.8182690  12.2024160  20.7170050  12.1267350  11.4611520
  24.2865070  12.7449370   6.9219420  24.0456430  13.0123930   6.0349940
  25.2267710  12.9155100   6.9770280  35.5469230  14.7643750   7.7230060
  35.0527510  15.1612620   7.0057190  34.9382520  14.1392960   8.1167340
  20.4247070  14.1352030   8.4407480  19.8307390  14.0036730   9.1797520
  20.4170910  13.2990170   7.9749580  33.2308680  15.4067170   5.0016800
  32.7711650  16.1582980   4.6274820  32.6021140  14.6873640   4.9431600
  20.0559300  11.5010410   7.3915520  19.3293360  10.8815700   7.3241470
  20.1168450  11.8951020   6.5213600  23.6604400  13.7155410   4.1764930
  24.1769420  13.1042770   3.6513190  24.3101780  14.2184190   4.6675940
  26.3999900  14.6063900   5.0033910  26.6877710  14.3518200   4.1266920
  26.9123120  14.0541260   5.5939480  26.4672260  15.5280000  12.3702110
  27.3939570  15.2924270  12.4138070  26.4522690  16.3552000  11.8888140
  33.0349820  14.7549860  12.1943150  33.8275140  14.2599090  11.9869110
  33.3282970  15.4340000  12.8018760  10.3865990  61.9501270  58.1733160
  10.3060040  61.0355880  57.9024870   9.9730410  62.4468340  57.4672870
   8.5184030  63.7280290  60.0542430   7.7426130  63.2480730  60.3441000
   9.1696960  63.0485940  59.8798590   7.9593020  66.4037480  60.0612590
   7.8901300  65.4627420  59.9001720   8.7212880  66.4938890  60.6335160
   8.9898190  59.2107860  60.2881520   9.3663010  58.3379740  60.1755190
   8.8917700  59.5466560  59.3971960   3.1203200  57.5833490  55.7498960
   3.2269950  58.4837220  56.0567720   2.2095560  57.5351460  55.4593610
  12.7722310  56.7058300  57.2209860  13.5931930  56.2154870  57.2635340
  12.8056390  57.2955960  57.9741700   4.9610930  60.5519860  60.0824140
   5.4689150  61.0500830  60.7229160   5.4924170  59.7755060  59.9063500
   9.6318120  65.3037730  55.8477460   9.0135390  65.7687180  55.2840180
  10.1441370  65.9965210  56.2646970  13.0083790  58.6458680  59.9937400
  12.3039360  58.9343570  60.5740510  13.3695950  59.4558790  59.6336960
  16.0770710  58.0913470  60.3846610  15.1295620  58.1252450  60.5162040
  16.4020700  58.9052420  60.7695970   6.6090250  54.3910650  58.6802600
   6.9165230  53.8357540  57.9638100   5.6790950  54.5255110  58.4975590
  13.4550730  66.8294160  56.0600230  13.3447060  65.8868490  56.1849650
  13.4518980  67.1909800  56.9462990   8.9971010  62.4559480  55.4162720
   8.0700290  62.3896860  55.6451190   9.1495830  63.3939610  55.3017960
   8.9840090  58.7276480  52.4129880   8.0443760  58.8890440  52.4982340
   9.3023350  59.4462160  51.8665870  13.0268300  64.0179780  55.9197970
  12.4080720  63.6799330  55.2724270  13.0092750  63.3739540  56.6277160
   4.6027650  62.9824220  58.1982450   4.1984650  62.2701470  57.7028350
   4.6890770  62.6377460  59.0870490   5.0709350  66.6691780  60.3621660
   4.7737640  66.0637250  59.6829440   6.0209170  66.7069090  60.2511020
  11.2033000  63.2566590  52.9270720  11.6426280  62.4189020  52.7808540
  11.9161420  63.8895990  53.0134860  14.7850140  54.5109400  51.2411760
  14.4722800  54.6036230  52.1410830  15.5462610  55.0890430  51.1909190
   3.7695940  55.2204270  59.0812770   3.3264090  56.0013810  58.7497290
   4.3280930  55.5434160  59.7883710   6.8854760  54.8414970  53.9618600
   6.2608940  54.8374840  54.6871910   6.7984880  53.9745930  53.5654570
   5.8071840  55.7651600  60.9402370   6.1044170  56.6714430  60.8594390
   6.3557400  55.2770380  60.3261940   3.5610160  60.3437840  56.8094020
   3.3351080  60.1275010  57.7140640   2.7802690  60.7766300  56.4639990
  10.7907920  60.3501210  55.4084670  10.1916810  61.0737010  55.2248290
  11.3387530  60.2877990  54.6261120   9.3972790  58.9864750  57.4387950
   9.7902360  59.3036950  56.6256640   9.7589640  58.1076630  57.5532470
   6.4205320  58.2524700  59.9391220   6.4241380  57.8114650  59.0895760
   7.3156440  58.5742030  60.0463040   6.4825470  59.2536780  52.9297980
   6.6038290  59.2123260  53.8783800   6.0973980  60.1160930  52.7744710
   5.4946970  61.5637920  52.3281280   4.9263870  61.1156170  51.7017190
   6.2035970  61.9230700  51.7946430   3.0394450  65.5596110  54.6007690
   2.2656710  65.0193730  54.4406410   3.7689080  65.0402720  54.2625450
  13.7982430  64.5561470  60.3934080  14.5181550  65.0516760  60.0030190
  13.5964250  63.8779360  59.7487950   9.2592370  55.9499430  54.5363470
   8.4456980  55.4512600  54.4608780   9.0654320  56.7897680  54.1199820
  11.9740760  60.3219080  52.8325630  12.8620380  60.6336310  52.6576970
  11.9445850  59.4491330  52.4406210   3.0831850  65.2276490  58.2386500
   3.6010520  64.4244750  58.1843390   2.6315870  65.1655630  59.0803330
   7.9701350  66.4942770  53.5113800   8.3117050  67.2385000  53.0157120
   7.1414060  66.8073890  53.8738630  14.2455030  61.6330920  52.3005490
  14.1618750  62.0645140  51.4501930  14.9649220  62.0929270  52.7332310
  10.8528760  65.8158610  58.8759310  11.2052580  65.2186740  58.2160680
   9.9691090  65.4902840  59.0467560   6.9392040  66.5756300  56.2829720
   7.6263170  67.1225510  56.6637310   6.1524460  67.1197030  56.3179330
   6.2419250  63.5802330  55.8955080   6.6982030  64.3907580  56.1215270
   5.8907460  63.2625470  56.7273570  13.6639660  67.3789640  51.5663970
  13.4377240  66.6620080  52.1588610  13.2735860  67.1302080  50.7285720
  13.2455910  65.2961580  53.2278130  12.9577610  65.7574270  54.0156010
  14.0408080  64.8359350  53.4962350  14.0025770  57.1310350  54.3873310
  13.3738930  57.2356020  53.6731540  13.5077690  57.3507130  55.1767190
   5.9709800  59.4096300  55.8031190   5.2625950  59.8782640  56.2444800
   6.2554280  58.7518310  56.4376380  10.0025230  56.1346960  57.2426980
   9.8793010  56.1533090  56.2936490  10.9509790  56.1825900  57.3625380
   4.1744820  57.7181380  53.1781900   5.0235350  58.1551530  53.1122090
   3.8076090  58.0301640  54.0053960  13.0954600  62.2894140  58.0913470
  12.1544740  62.3044370  58.2661160  13.4098670  61.5030100  58.5373770
   3.0736240  63.9713740  51.6517430   3.8399510  63.8595100  52.2142860
   3.1510930  63.2751710  50.9994200   1.7683000  61.4038810  52.3350320
   1.8486590  60.4566320  52.4467720   2.6602750  61.7345690  52.4410980
   6.1977420  65.9467920  51.1252780   6.0928060  65.3320270  51.8514160
   6.0301640  65.4233810  50.3415790   9.4380150  65.0087950  51.7294770
   8.8890250  65.4557250  52.3737510  10.0599410  64.5037200  52.2532440
   5.1055270  63.9678870  53.6260070   5.5271690  63.8018740  54.4691460
   5.2306110  63.1579100  53.1315210   7.6182910  62.9916480  50.8737170
   8.1388570  62.2765500  50.5078320   8.2651310  63.6302350  51.1737680
   4.0014170  60.0412100  50.5718230   3.8003230  59.1779460  50.9331570
   3.8306220  59.9545460  49.6339830  11.4802480  54.8520330  53.1005110
  11.7604770  54.0088230  53.4564530  10.7068210  55.0843440  53.6143860
   2.7996970  57.1412720  50.5596110   3.1022870  57.1480150  49.6515260
   3.5391560  56.7910580  51.0563770   6.0181900  56.0847340  51.5452310
   5.6703900  55.4071330  50.9654760   6.2194670  55.6236850  52.3595700
   1.8227100  66.4455140  51.3925910   2.2601970  66.9884810  52.0483490
   2.3074830  65.6202090  51.4022250  15.8583200  64.0897060  53.7109020
  16.6202110  64.6593710  53.8168710  15.8737570  63.5224260  54.4817330
  16.8643170  64.9447160  58.5550950  17.2352000  64.1614480  58.1486920
  17.5045100  65.6336260  58.3768250  15.9102370  64.3831430  50.8681540
  16.1851210  65.2910310  50.7400760  15.7213110  64.3193960  51.8043530
  12.3077980  57.4076280  52.1635170  12.7262860  57.2207260  51.3231830
  12.0014040  56.5555330  52.4738100  15.8067710  62.3200420  55.8610970
  15.4311310  61.5528350  55.4292260  15.0770830  62.7023120  56.3485900
  15.0818670  60.5457910  59.1618210  15.6056150  60.0520560  58.5308380
  15.6678090  60.6808270  59.9065780  14.5718640  59.8031260  55.1010620
  15.0677760  59.5702130  55.8859500  14.3734710  58.9643100  54.6848260
  16.0005800  58.4392210  57.6348300  15.8905080  58.2848250  58.5730570
  16.7613390  57.9113150  57.3923710  16.8896070  56.2700130  50.8754440
  17.8145380  56.1381310  50.6672730  16.8671860  56.3492950  51.8290890
  16.9634560  57.0410790  53.5011150  16.1686060  56.9755910  54.0304060
  17.1677840  57.9761430  53.4896500  13.3954490  55.3707670  59.9509980
  13.8362580  55.3152770  59.1031580  13.1262080  56.2865680  60.0220160
  15.2593060  55.0022910  57.9618800  15.1981460  54.0584130  57.8149820
  16.0385090  55.1103000  58.5072260   6.7287640  57.0871320  57.4176920
   5.9162150  56.7128210  57.0772800   7.2329280  56.3316400  57.7198110
  11.2312620  53.7513770  58.6559990  11.8341990  54.3233980  59.1308510
  10.4905610  54.3153210  58.4333890  14.3747220  54.1535330  53.9300270
  14.5697850  55.0518780  54.1967700  13.5877090  53.9222410  54.4233220
   2.5598980  55.4996100  52.9676580   3.0891740  54.7125900  52.8384530
   3.1927300  56.1787290  53.2012110   4.7536820  55.2371240  56.0221970
   4.1239560  54.5358550  56.1892100   4.2141960  55.9975370  55.8055130
  10.3865990  61.9501270  39.3989670  10.3060040  61.0355880  39.1281380
   9.9730410  62.4468340  38.6929380   8.5184030  63.7280290  41.2798940
   7.7426130  63.2480730  41.5697510   9.1696960  63.0485940  41.1055100
   7.9593020  66.4037480  41.2869100   7.8901300  65.4627420  41.1258230
   8.7212880  66.4938890  41.8591670   8.9898190  59.2107860  41.5138030
   9.3663010  58.3379740  41.4011700   8.8917700  59.5466560  40.6228470
   3.1203200  57.5833490  36.9755470   3.2269950  58.4837220  37.2824230
   2.2095560  57.5351460  36.6850120  12.7722310  56.7058300  38.4466370
  13.5931930  56.2154870  38.4891850  12.8056390  57.2955960  39.1998210
   4.9610930  60.5519860  41.3080650   5.4689150  61.0500830  41.9485670
   5.4924170  59.7755060  41.1320010  17.0621860  58.7225050  45.0110000
  16.3574030  59.1106760  44.4925110  17.3279780  59.4175340  45.6130930
   3.2447030  55.1918420  45.5744070   3.2465470  55.7090810  44.7689970
   2.4151340  54.7148600  45.5514000   9.6318120  65.3037730  37.0733970
   9.0135390  65.7687180  36.5096690  10.1441370  65.9965210  37.4903480
   4.4949880  64.8313600  43.7517570   4.1619260  65.4582520  44.3938640
   4.6716560  65.3575480  42.9719240  13.0083790  58.6458680  41.2193910
  12.3039360  58.9343570  41.7997020  13.3695950  59.4558790  40.8593470
   2.9262360  56.9028380  43.5814520   3.2679170  57.7470430  43.2868390
   1.9878170  57.0512120  43.6979860  16.0770710  58.0913470  41.6103120
  15.1295620  58.1252450  41.7418550  16.4020700  58.9052420  41.9952480
   6.6090250  54.3910650  39.9059110   6.9165230  53.8357540  39.1894610
   5.6790950  54.5255110  39.7232100  13.4550730  66.8294160  37.2856740
  13.3447060  65.8868490  37.4106160  13.4518980  67.1909800  38.1719500
  11.5590750  65.0107780  43.5249180  11.9759540  64.7967890  42.6902640
  12.2830570  65.2680570  44.0957800   8.9971010  62.4559480  36.6419230
   8.0700290  62.3896860  36.8707700   9.1495830  63.3939610  36.5274470
   8.9840090  58.7276480  33.6386390   8.0443760  58.8890440  33.7238850
   9.3023350  59.4462160  33.0922380  15.5052850  63.4095000  43.6165420
  14.6771480  63.4788090  43.1415550  16.1003330  63.9949310  43.1481250
  13.0268300  64.0179780  37.1454480  12.4080720  63.6799330  36.4980780
  13.0092750  63.3739540  37.8533670  12.4694860  60.1964320  44.5620290
  12.0566040  61.0218030  44.8160280  11.7370810  59.6109360  44.3696650
   4.6027650  62.9824220  39.4238960   4.1984650  62.2701470  38.9284860
   4.6890770  62.6377460  40.3127000   5.0709350  66.6691780  41.5878170
   4.7737640  66.0637250  40.9085950   6.0209170  66.7069090  41.4767530
   3.3156270  59.7567430  43.2038000   3.8670860  59.8662770  42.4291250
   3.8299780  60.1305030  43.9193230   4.1627780  66.4073470  48.2385970
   3.2656310  66.6313440  48.4859370   4.1880650  66.5308410  47.2897370
  11.2033000  63.2566590  34.1527230  11.6426280  62.4189020  34.0065050
  11.9161420  63.8895990  34.2391370   2.9899000  63.2786790  46.8143340
   2.8506770  64.1509590  47.1830740   2.1080360  62.9359600  46.6691280
  14.7850140  54.5109400  32.4668270  14.4722800  54.6036230  33.3667340
  15.5462610  55.0890430  32.4165700  16.1427420  67.1948440  47.4792670
  16.2690480  66.9560320  46.5609850  16.1848800  66.3632980  47.9514750
  15.9951430  59.2480900  48.4442410  15.3795700  59.7560570  47.9157870
  15.6747850  58.3479230  48.3868350   3.7695940  55.2204270  40.3069280
   3.3264090  56.0013810  39.9753800   4.3280930  55.5434160  41.0140220
   8.0565750  58.0872790  45.9104600   7.5945120  58.2955810  46.7224540
   7.6543860  57.2732140  45.6075270  13.0570260  59.3081740  47.0401260
  12.2063850  59.0087490  47.3610330  12.8972050  59.5523750  46.1285080
  10.1519970  60.8083490  49.1400050  10.4773380  59.9747240  48.8002280
  10.9400300  61.3312010  49.2878380   6.8854760  54.8414970  35.1875110
   6.2608940  54.8374840  35.9128420   6.7984880  53.9745930  34.7911080
   5.8071840  55.7651600  42.1658880   6.1044170  56.6714430  42.0850900
   6.3557400  55.2770380  41.5518450   3.5610160  60.3437840  38.0350530
   3.3351080  60.1275010  38.9397150   2.7802690  60.7766300  37.6896500
  10.7907920  60.3501210  36.6341180  10.1916810  61.0737010  36.4504800
  11.3387530  60.2877990  35.8517630   6.0009370  61.2423420  48.7010800
   5.9052970  60.3018150  48.5511200   6.8441350  61.4638490  48.3058870
   9.3972790  58.9864750  38.6644460   9.7902360  59.3036950  37.8513150
   9.7589640  58.1076630  38.7788980   7.7064960  57.7372060  49.9241320
   7.0163280  57.5444260  50.5587410   8.4497260  58.0206700  50.4565620
   9.9827930  61.5770500  42.7595240   9.2509050  62.0857310  43.1085340
   9.5852270  60.7600480  42.4584020   6.4205320  58.2524700  41.1647730
   6.4241380  57.8114650  40.3152270   7.3156440  58.5742030  41.2719550
   6.4825470  59.2536780  34.1554490   6.6038290  59.2123260  35.1040310
   6.0973980  60.1160930  34.0001220  10.4453840  57.0304180  42.1718180
  10.4626580  57.4812830  43.0160030  10.1969420  56.1309820  42.3851620
   5.4946970  61.5637920  33.5537790   4.9263870  61.1156170  32.9273700
   6.2035970  61.9230700  33.0202940  13.8724590  54.4436360  48.0104560
  14.1970360  53.7126020  48.5362540  13.9081100  54.1250000  47.1085550
   6.7213290  62.3126480  42.9113140   7.0883420  61.8385050  43.6574480
   6.5318350  63.1868050  43.2521480   4.5112660  61.3535120  45.2297350
   4.2069730  62.2327100  45.4547710   5.4659120  61.4134910  45.2654790
   3.0394450  65.5596110  35.8264200   2.2656710  65.0193730  35.6662920
   3.7689080  65.0402720  35.4881960  13.7982430  64.5561470  41.6190590
  14.5181550  65.0516760  41.2286700  13.5964250  63.8779360  40.9744460
   9.2592370  55.9499430  35.7619980   8.4456980  55.4512600  35.6865290
   9.0654320  56.7897680  35.3456330   9.1801230  64.6270530  47.5059590
   9.1138540  63.7066200  47.2517180   8.5506370  64.7245970  48.2204230
  11.9740760  60.3219080  34.0582140  12.8620380  60.6336310  33.8833480
  11.9445850  59.4491330  33.6662720   3.0831850  65.2276490  39.4643010
   3.6010520  64.4244750  39.4099900   2.6315870  65.1655630  40.3059840
   7.9701350  66.4942770  34.7370310   8.3117050  67.2385000  34.2413630
   7.1414060  66.8073890  35.0995140   3.7689510  62.6522100  49.2608260
   3.4689650  62.7979280  48.3636080   4.5400750  62.0927390  49.1681650
  14.2455030  61.6330920  33.5262000  14.1618750  62.0645140  32.6758440
  14.9649220  62.0929270  33.9588820  15.3229170  64.0898440  46.6031970
  14.5977360  64.6827220  46.4061360  15.8504630  64.0821980  45.8045340
  10.8528760  65.8158610  40.1015820  11.2052580  65.2186740  39.4417190
   9.9691090  65.4902840  40.2724070   6.9392040  66.5756300  37.5086230
   7.6263170  67.1225510  37.8893820   6.1524460  67.1197030  37.5435840
   6.2419250  63.5802330  37.1211590   6.6982030  64.3907580  37.3471780
   5.8907460  63.2625470  37.9530080  13.6639660  67.3789640  32.7920480
  13.4377240  66.6620080  33.3845120  13.2735860  67.1302080  31.9542230
  13.2455910  65.2961580  34.4534640  12.9577610  65.7574270  35.2412520
  14.0408080  64.8359350  34.7218860  10.6363740  58.1753410  44.8042260
  11.0044560  57.3548620  45.1321830   9.7761940  58.2355300  45.2197910
  14.0025770  57.1310350  35.6129820  13.3738930  57.2356020  34.8988050
  13.5077690  57.3507130  36.4023700   5.9709800  59.4096300  37.0287700
   5.2625950  59.8782640  37.4701310   6.2554280  58.7518310  37.6632890
   7.5965730  60.8293000  45.0280230   8.0950980  61.3038820  45.6932080
   7.7388680  59.9056520  45.2350260  10.0025230  56.1346960  38.4683490
   9.8793010  56.1533090  37.5193000  10.9509790  56.1825900  38.5881890
   4.1744820  57.7181380  34.4038410   5.0235350  58.1551530  34.3378600
   3.8076090  58.0301640  35.2310470  14.8032590  57.0460960  45.8708620
  14.3006190  57.7866360  46.2102430  15.6189250  57.4344960  45.5545410
  13.0954600  62.2894140  39.3169980  12.1544740  62.3044370  39.4917670
  13.4098670  61.5030100  39.7630280   3.0736240  63.9713740  32.8773940
   3.8399510  63.8595100  33.4399370   3.1510930  63.2751710  32.2250710
   1.7683000  61.4038810  33.5606830   1.8486590  60.4566320  33.6724230
   2.6602750  61.7345690  33.6667490  10.4120620  66.8460140  49.8002360
   9.8058780  66.8691740  49.0598110  10.1074730  66.1143180  50.3369610
   6.1977420  65.9467920  32.3509290   6.0928060  65.3320270  33.0770670
   6.0301640  65.4233810  31.5672300   6.3491740  64.6324720  48.3298520
   5.5837410  65.2009720  48.2453190   6.5307700  64.3400930  47.4366750
   9.4380150  65.0087950  32.9551280   8.8890250  65.4557250  33.5994020
  10.0599410  64.5037200  33.4788950  13.4915090  66.3630050  48.8873540
  14.2324560  66.7005810  48.3841000  12.7287770  66.5322110  48.3343310
   5.1055270  63.9678870  34.8516580   5.5271690  63.8018740  35.6947970
   5.2306110  63.1579100  34.3571720   3.2682690  59.9475420  47.6587560
   2.7379150  59.4566370  47.0310900   3.9370760  60.3759620  47.1245490
   7.6182910  62.9916480  32.0993680   8.1388570  62.2765500  31.7334830
   8.2651310  63.6302350  32.3994190  12.1660750  64.4144880  47.4228750
  12.5801770  64.5689960  48.2719170  11.2311750  64.5400100  47.5854530
  12.6382920  61.7541040  49.4267900  13.2203690  60.9993360  49.3388380
  12.8144690  62.2848480  48.6499380   3.7554990  56.9137790  47.7384850
   3.6611860  56.2958540  47.0135720   3.1752380  57.6404080  47.5114760
   6.5216430  55.4711030  44.7712240   6.0733730  55.4935290  43.9257790
   5.8881630  55.0730050  45.3682540   6.9275980  64.3665360  45.3924680
   7.3464090  65.2098090  45.2200920   6.0084610  64.5037400  45.1631460
   9.2639880  62.0981540  46.7762520   9.3836090  61.5022680  47.5157360
  10.1233880  62.1351230  46.3563820  11.6027780  62.6518730  45.3525030
  11.0763000  63.1761350  44.7490170  11.9459120  63.2846120  45.9834760
   4.0014170  60.0412100  31.7974740   3.8003230  59.1779460  32.1588080
   3.8306220  59.9545460  30.8596340   6.0308650  58.6402890  48.0338340
   6.6208340  58.3318740  48.7216160   5.2128890  58.1682640  48.1898240
  10.8502080  58.2568700  48.2671360  10.1617600  57.5950240  48.2021350
  11.5708100  57.8106970  48.7119820  11.4802480  54.8520330  34.3261620
  11.7604770  54.0088230  34.6821040  10.7068210  55.0843440  34.8400370
   2.7996970  57.1412720  31.7852620   3.1022870  57.1480150  30.8771770
   3.5391560  56.7910580  32.2820280   6.0181900  56.0847340  32.7708820
   5.6703900  55.4071330  32.1911270   6.2194670  55.6236850  33.5852210
   1.8227100  66.4455140  32.6182420   2.2601970  66.9884810  33.2740000
   2.3074830  65.6202090  32.6278760  15.8583200  64.0897060  34.9365530
  16.6202110  64.6593710  35.0425220  15.8737570  63.5224260  35.7073840
  16.8643170  64.9447160  39.7807460  17.2352000  64.1614480  39.3743430
  17.5045100  65.6336260  39.6024760  13.8476930  66.3283740  45.1937780
  13.0336770  66.7580900  45.4563570  14.2551130  66.9402150  44.5806830
  15.9102370  64.3831430  32.0938050  16.1851210  65.2910310  31.9657270
  15.7213110  64.3193960  33.0300040  12.3077980  57.4076280  33.3891680
  12.7262860  57.2207260  32.5488340  12.0014040  56.5555330  33.6994610
  15.8067710  62.3200420  37.0867480  15.4311310  61.5528350  36.6548770
  15.0770830  62.7023120  37.5742410  15.1967330  61.4671940  46.7207000
  14.9653420  61.2384690  45.8204950  15.4571880  62.3871490  46.6751890
  13.6355400  56.6928370  49.4986700  14.5125580  56.7011770  49.8820700
  13.6476240  55.9559210  48.8879050  15.0818670  60.5457910  40.3874720
  15.6056150  60.0520560  39.7564890  15.6678090  60.6808270  41.1322290
  15.2608390  60.6297780  43.9094270  14.3111100  60.5961320  44.0239260
  15.4421400  61.5397890  43.6744040  14.5718640  59.8031260  36.3267130
  15.0677760  59.5702130  37.1116010  14.3734710  58.9643100  35.9104770
  16.0005800  58.4392210  38.8604810  15.8905080  58.2848250  39.7987080
  16.7613390  57.9113150  38.6180220  14.3471520  54.3786340  45.3187810
  14.9843740  54.9920480  45.6847000  14.4946410  54.4147000  44.3737040
  16.8896070  56.2700130  32.1010950  17.8145380  56.1381310  31.8929240
  16.8671860  56.3492950  33.0547400  16.9634560  57.0410790  34.7267660
  16.1686060  56.9755910  35.2560570  17.1677840  57.9761430  34.7153010
   7.7176000  55.5312530  48.2262910   7.6564890  56.1234360  48.9758320
   8.6576380  55.4238490  48.0813170  10.3550560  55.1882590  47.8655200
  10.9690970  55.5061880  47.2036280  10.9000120  54.7031180  48.4851060
  11.0958600  53.7514730  44.1924490  10.2218440  54.0849840  43.9897420
  10.9869350  53.2787910  45.0176360  12.0030580  55.9585600  45.5766210
  11.6743940  55.1437360  45.1967940  12.9512880  55.9155410  45.4531900
   8.8433420  54.6684570  43.1317400   8.0605210  55.1430070  43.4114160
   8.5496350  53.7639400  43.0230580  13.3954490  55.3707670  41.1766490
  13.8362580  55.3152770  40.3288090  13.1262080  56.2865680  41.2476670
  15.2593060  55.0022910  39.1875310  15.1981460  54.0584130  39.0406330
  16.0385090  55.1103000  39.7328770   6.7287640  57.0871320  38.6433430
   5.9162150  56.7128210  38.3029310   7.2329280  56.3316400  38.9454620
  11.2312620  53.7513770  39.8816500  11.8341990  54.3233980  40.3565020
  10.4905610  54.3153210  39.6590400  14.3747220  54.1535330  35.1556780
  14.5697850  55.0518780  35.4224210  13.5877090  53.9222410  35.6489730
   2.5598980  55.4996100  34.1933090   3.0891740  54.7125900  34.0641040
   3.1927300  56.1787290  34.4268620   4.7536820  55.2371240  37.2478480
   4.1239560  54.5358550  37.4148610   4.2141960  55.9975370  37.0311640
   4.8792380  54.5155220  49.6830970   4.5976650  55.0188820  48.9191790
   5.2612080  53.7176970  49.3173100  11.4807840  53.9308800  50.2611440
  11.3673290  54.2503410  51.1562960  12.2977580  54.3321310  49.9648720
  10.3865990  61.9501270  20.6246180  10.3060040  61.0355880  20.3537890
   9.9730410  62.4468340  19.9185890   8.5184030  63.7280290  22.5055450
   7.7426130  63.2480730  22.7954020   9.1696960  63.0485940  22.3311610
   7.9593020  66.4037480  22.5125610   7.8901300  65.4627420  22.3514740
   8.7212880  66.4938890  23.0848180   8.9898190  59.2107860  22.7394540
   9.3663010  58.3379740  22.6268210   8.8917700  59.5466560  21.8484980
   3.1203200  57.5833490  18.2011980   3.2269950  58.4837220  18.5080740
   2.2095560  57.5351460  17.9106630  12.7722310  56.7058300  19.6722880
  13.5931930  56.2154870  19.7148360  12.8056390  57.2955960  20.4254720
   4.9610930  60.5519860  22.5337160   5.4689150  61.0500830  23.1742180
   5.4924170  59.7755060  22.3576520  17.0621860  58.7225050  26.2366510
  16.3574030  59.1106760  25.7181620  17.3279780  59.4175340  26.8387440
   3.2447030  55.1918420  26.8000580   3.2465470  55.7090810  25.9946480
   2.4151340  54.7148600  26.7770510   9.6318120  65.3037730  18.2990480
   9.0135390  65.7687180  17.7353200  10.1441370  65.9965210  18.7159990
   4.4949880  64.8313600  24.9774080   4.1619260  65.4582520  25.6195150
   4.6716560  65.3575480  24.1975750  13.0083790  58.6458680  22.4450420
  12.3039360  58.9343570  23.0253530  13.3695950  59.4558790  22.0849980
   2.9262360  56.9028380  24.8071030   3.2679170  57.7470430  24.5124900
   1.9878170  57.0512120  24.9236370  16.0770710  58.0913470  22.8359630
  15.1295620  58.1252450  22.9675060  16.4020700  58.9052420  23.2208990
   6.6090250  54.3910650  21.1315620   6.9165230  53.8357540  20.4151120
   5.6790950  54.5255110  20.9488610  13.4550730  66.8294160  18.5113250
  13.3447060  65.8868490  18.6362670  13.4518980  67.1909800  19.3976010
  11.5590750  65.0107780  24.7505690  11.9759540  64.7967890  23.9159150
  12.2830570  65.2680570  25.3214310   8.9971010  62.4559480  17.8675740
   8.0700290  62.3896860  18.0964210   9.1495830  63.3939610  17.7530980
   8.9840090  58.7276480  14.8642900   8.0443760  58.8890440  14.9495360
   9.3023350  59.4462160  14.3178890  15.5052850  63.4095000  24.8421930
  14.6771480  63.4788090  24.3672060  16.1003330  63.9949310  24.3737760
  13.0268300  64.0179780  18.3710990  12.4080720  63.6799330  17.7237290
  13.0092750  63.3739540  19.0790180  12.4694860  60.1964320  25.7876800
  12.0566040  61.0218030  26.0416790  11.7370810  59.6109360  25.5953160
   4.6027650  62.9824220  20.6495470   4.1984650  62.2701470  20.1541370
   4.6890770  62.6377460  21.5383510   5.0709350  66.6691780  22.8134680
   4.7737640  66.0637250  22.1342460   6.0209170  66.7069090  22.7024040
   3.3156270  59.7567430  24.4294510   3.8670860  59.8662770  23.6547760
   3.8299780  60.1305030  25.1449740   4.1627780  66.4073470  29.4642480
   3.2656310  66.6313440  29.7115880   4.1880650  66.5308410  28.5153880
  11.2033000  63.2566590  15.3783740  11.6426280  62.4189020  15.2321560
  11.9161420  63.8895990  15.4647880   2.9899000  63.2786790  28.0399850
   2.8506770  64.1509590  28.4087250   2.1080360  62.9359600  27.8947790
  14.7850140  54.5109400  13.6924780  14.4722800  54.6036230  14.5923850
  15.5462610  55.0890430  13.6422210  16.1427420  67.1948440  28.7049180
  16.2690480  66.9560320  27.7866360  16.1848800  66.3632980  29.1771260
  15.9951430  59.2480900  29.6698920  15.3795700  59.7560570  29.1414380
  15.6747850  58.3479230  29.6124860   3.7695940  55.2204270  21.5325790
   3.3264090  56.0013810  21.2010310   4.3280930  55.5434160  22.2396730
   8.0565750  58.0872790  27.1361110   7.5945120  58.2955810  27.9481050
   7.6543860  57.2732140  26.8331780  13.0570260  59.3081740  28.2657770
  12.2063850  59.0087490  28.5866840  12.8972050  59.5523750  27.3541590
  10.1519970  60.8083490  30.3656560  10.4773380  59.9747240  30.0258790
  10.9400300  61.3312010  30.5134890   6.8854760  54.8414970  16.4131620
   6.2608940  54.8374840  17.1384930   6.7984880  53.9745930  16.0167590
   5.8071840  55.7651600  23.3915390   6.1044170  56.6714430  23.3107410
   6.3557400  55.2770380  22.7774960   3.5610160  60.3437840  19.2607040
   3.3351080  60.1275010  20.1653660   2.7802690  60.7766300  18.9153010
  10.7907920  60.3501210  17.8597690  10.1916810  61.0737010  17.6761310
  11.3387530  60.2877990  17.0774140   6.0009370  61.2423420  29.9267310
   5.9052970  60.3018150  29.7767710   6.8441350  61.4638490  29.5315380
   9.3972790  58.9864750  19.8900970   9.7902360  59.3036950  19.0769660
   9.7589640  58.1076630  20.0045490   7.7064960  57.7372060  31.1497830
   7.0163280  57.5444260  31.7843920   8.4497260  58.0206700  31.6822130
   9.9827930  61.5770500  23.9851750   9.2509050  62.0857310  24.3341850
   9.5852270  60.7600480  23.6840530   6.4205320  58.2524700  22.3904240
   6.4241380  57.8114650  21.5408780   7.3156440  58.5742030  22.4976060
   6.4825470  59.2536780  15.3811000   6.6038290  59.2123260  16.3296820
   6.0973980  60.1160930  15.2257730  10.4453840  57.0304180  23.3974690
  10.4626580  57.4812830  24.2416540  10.1969420  56.1309820  23.6108130
   5.4946970  61.5637920  14.7794300   4.9263870  61.1156170  14.1530210
   6.2035970  61.9230700  14.2459450  13.8724590  54.4436360  29.2361070
  14.1970360  53.7126020  29.7619050  13.9081100  54.1250000  28.3342060
   6.7213290  62.3126480  24.1369650   7.0883420  61.8385050  24.8830990
   6.5318350  63.1868050  24.4777990   4.5112660  61.3535120  26.4553860
   4.2069730  62.2327100  26.6804220   5.4659120  61.4134910  26.4911300
   3.0394450  65.5596110  17.0520710   2.2656710  65.0193730  16.8919430
   3.7689080  65.0402720  16.7138470  13.7982430  64.5561470  22.8447100
  14.5181550  65.0516760  22.4543210  13.5964250  63.8779360  22.2000970
   9.2592370  55.9499430  16.9876490   8.4456980  55.4512600  16.9121800
   9.0654320  56.7897680  16.5712840   9.1801230  64.6270530  28.7316100
   9.1138540  63.7066200  28.4773690   8.5506370  64.7245970  29.4460740
  11.9740760  60.3219080  15.2838650  12.8620380  60.6336310  15.1089990
  11.9445850  59.4491330  14.8919230   3.0831850  65.2276490  20.6899520
   3.6010520  64.4244750  20.6356410   2.6315870  65.1655630  21.5316350
   7.9701350  66.4942770  15.9626820   8.3117050  67.2385000  15.4670140
   7.1414060  66.8073890  16.3251650   3.7689510  62.6522100  30.4864770
   3.4689650  62.7979280  29.5892590   4.5400750  62.0927390  30.3938160
  14.2455030  61.6330920  14.7518510  14.1618750  62.0645140  13.9014950
  14.9649220  62.0929270  15.1845330  15.3229170  64.0898440  27.8288480
  14.5977360  64.6827220  27.6317870  15.8504630  64.0821980  27.0301850
  10.8528760  65.8158610  21.3272330  11.2052580  65.2186740  20.6673700
   9.9691090  65.4902840  21.4980580   6.9392040  66.5756300  18.7342740
   7.6263170  67.1225510  19.1150330   6.1524460  67.1197030  18.7692350
   6.2419250  63.5802330  18.3468100   6.6982030  64.3907580  18.5728290
   5.8907460  63.2625470  19.1786590  13.6639660  67.3789640  14.0176990
  13.4377240  66.6620080  14.6101630  13.2735860  67.1302080  13.1798740
  13.2455910  65.2961580  15.6791150  12.9577610  65.7574270  16.4669030
  14.0408080  64.8359350  15.9475370  10.6363740  58.1753410  26.0298770
  11.0044560  57.3548620  26.3578340   9.7761940  58.2355300  26.4454420
  14.0025770  57.1310350  16.8386330  13.3738930  57.2356020  16.1244560
  13.5077690  57.3507130  17.6280210   5.9709800  59.4096300  18.2544210
   5.2625950  59.8782640  18.6957820   6.2554280  58.7518310  18.8889400
   7.5965730  60.8293000  26.2536740   8.0950980  61.3038820  26.9188590
   7.7388680  59.9056520  26.4606770  10.0025230  56.1346960  19.6940000
   9.8793010  56.1533090  18.7449510  10.9509790  56.1825900  19.8138400
   4.1744820  57.7181380  15.6294920   5.0235350  58.1551530  15.5635110
   3.8076090  58.0301640  16.4566980  14.8032590  57.0460960  27.0965130
  14.3006190  57.7866360  27.4358940  15.6189250  57.4344960  26.7801920
  13.0954600  62.2894140  20.5426490  12.1544740  62.3044370  20.7174180
  13.4098670  61.5030100  20.9886790   3.0736240  63.9713740  14.1030450
   3.8399510  63.8595100  14.6655880   3.1510930  63.2751710  13.4507220
   1.7683000  61.4038810  14.7863340   1.8486590  60.4566320  14.8980740
   2.6602750  61.7345690  14.8924000  10.4120620  66.8460140  31.0258870
   9.8058780  66.8691740  30.2854620  10.1074730  66.1143180  31.5626120
   6.1977420  65.9467920  13.5765800   6.0928060  65.3320270  14.3027180
   6.0301640  65.4233810  12.7928810   6.3491740  64.6324720  29.5555030
   5.5837410  65.2009720  29.4709700   6.5307700  64.3400930  28.6623260
   9.4380150  65.0087950  14.1807790   8.8890250  65.4557250  14.8250530
  10.0599410  64.5037200  14.7045460  13.4915090  66.3630050  30.1130050
  14.2324560  66.7005810  29.6097510  12.7287770  66.5322110  29.5599820
   5.1055270  63.9678870  16.0773090   5.5271690  63.8018740  16.9204480
   5.2306110  63.1579100  15.5828230   3.2682690  59.9475420  28.8844070
   2.7379150  59.4566370  28.2567410   3.9370760  60.3759620  28.3502000
   7.6182910  62.9916480  13.3250190   8.1388570  62.2765500  12.9591340
   8.2651310  63.6302350  13.6250700  12.1660750  64.4144880  28.6485260
  12.5801770  64.5689960  29.4975680  11.2311750  64.5400100  28.8111040
  12.6382920  61.7541040  30.6524410  13.2203690  60.9993360  30.5644890
  12.8144690  62.2848480  29.8755890   3.7554990  56.9137790  28.9641360
   3.6611860  56.2958540  28.2392230   3.1752380  57.6404080  28.7371270
   6.5216430  55.4711030  25.9968750   6.0733730  55.4935290  25.1514300
   5.8881630  55.0730050  26.5939050   6.9275980  64.3665360  26.6181190
   7.3464090  65.2098090  26.4457430   6.0084610  64.5037400  26.3887970
   9.2639880  62.0981540  28.0019030   9.3836090  61.5022680  28.7413870
  10.1233880  62.1351230  27.5820330  11.6027780  62.6518730  26.5781540
  11.0763000  63.1761350  25.9746680  11.9459120  63.2846120  27.2091270
   4.0014170  60.0412100  13.0231250   3.8003230  59.1779460  13.3844590
   3.8306220  59.9545460  12.0852850   6.0308650  58.6402890  29.2594850
   6.6208340  58.3318740  29.9472670   5.2128890  58.1682640  29.4154750
  10.8502080  58.2568700  29.4927870  10.1617600  57.5950240  29.4277860
  11.5708100  57.8106970  29.9376330  11.4802480  54.8520330  15.5518130
  11.7604770  54.0088230  15.9077550  10.7068210  55.0843440  16.0656880
   2.7996970  57.1412720  13.0109130   3.1022870  57.1480150  12.1028280
   3.5391560  56.7910580  13.5076790   6.0181900  56.0847340  13.9965330
   5.6703900  55.4071330  13.4167780   6.2194670  55.6236850  14.8108720
   1.8227100  66.4455140  13.8438930   2.2601970  66.9884810  14.4996510
   2.3074830  65.6202090  13.8535270  15.8583200  64.0897060  16.1622040
  16.6202110  64.6593710  16.2681730  15.8737570  63.5224260  16.9330350
  16.8643170  64.9447160  21.0063970  17.2352000  64.1614480  20.5999940
  17.5045100  65.6336260  20.8281270  13.8476930  66.3283740  26.4194290
  13.0336770  66.7580900  26.6820080  14.2551130  66.9402150  25.8063340
  15.9102370  64.3831430  13.3194560  16.1851210  65.2910310  13.1913780
  15.7213110  64.3193960  14.2556550  12.3077980  57.4076280  14.6148190
  12.7262860  57.2207260  13.7744850  12.0014040  56.5555330  14.9251120
  15.8067710  62.3200420  18.3123990  15.4311310  61.5528350  17.8805280
  15.0770830  62.7023120  18.7998920  15.1967330  61.4671940  27.9463510
  14.9653420  61.2384690  27.0461460  15.4571880  62.3871490  27.9008400
  13.6355400  56.6928370  30.7243210  14.5125580  56.7011770  31.1077210
  13.6476240  55.9559210  30.1135560  15.0818670  60.5457910  21.6131230
  15.6056150  60.0520560  20.9821400  15.6678090  60.6808270  22.3578800
  15.2608390  60.6297780  25.1350780  14.3111100  60.5961320  25.2495770
  15.4421400  61.5397890  24.9000550  14.5718640  59.8031260  17.5523640
  15.0677760  59.5702130  18.3372520  14.3734710  58.9643100  17.1361280
  16.0005800  58.4392210  20.0861320  15.8905080  58.2848250  21.0243590
  16.7613390  57.9113150  19.8436730  14.3471520  54.3786340  26.5444320
  14.9843740  54.9920480  26.9103510  14.4946410  54.4147000  25.5993550
  16.8896070  56.2700130  13.3267460  17.8145380  56.1381310  13.1185750
  16.8671860  56.3492950  14.2803910  16.9634560  57.0410790  15.9524170
  16.1686060  56.9755910  16.4817080  17.1677840  57.9761430  15.9409520
   7.7176000  55.5312530  29.4519420   7.6564890  56.1234360  30.2014830
   8.6576380  55.4238490  29.3069680  10.3550560  55.1882590  29.0911710
  10.9690970  55.5061880  28.4292790  10.9000120  54.7031180  29.7107570
  11.0958600  53.7514730  25.4181000  10.2218440  54.0849840  25.2153930
  10.9869350  53.2787910  26.2432870  12.0030580  55.9585600  26.8022720
  11.6743940  55.1437360  26.4224450  12.9512880  55.9155410  26.6788410
   8.8433420  54.6684570  24.3573910   8.0605210  55.1430070  24.6370670
   8.5496350  53.7639400  24.2487090  13.3954490  55.3707670  22.4023000
  13.8362580  55.3152770  21.5544600  13.1262080  56.2865680  22.4733180
  15.2593060  55.0022910  20.4131820  15.1981460  54.0584130  20.2662840
  16.0385090  55.1103000  20.9585280   6.7287640  57.0871320  19.8689940
   5.9162150  56.7128210  19.5285820   7.2329280  56.3316400  20.1711130
  11.2312620  53.7513770  21.1073010  11.8341990  54.3233980  21.5821530
  10.4905610  54.3153210  20.8846910  14.3747220  54.1535330  16.3813290
  14.5697850  55.0518780  16.6480720  13.5877090  53.9222410  16.8746240
   2.5598980  55.4996100  15.4189600   3.0891740  54.7125900  15.2897550
   3.1927300  56.1787290  15.6525130   4.7536820  55.2371240  18.4734990
   4.1239560  54.5358550  18.6405120   4.2141960  55.9975370  18.2568150
   4.8792380  54.5155220  30.9087480   4.5976650  55.0188820  30.1448300
   5.2612080  53.7176970  30.5429610  11.4807840  53.9308800  31.4867950
  11.3673290  54.2503410  32.3819470  12.2977580  54.3321310  31.1905230
   8.5184030  63.7280290   3.7311960   7.7426130  63.2480730   4.0210530
   9.1696960  63.0485940   3.5568120   7.9593020  66.4037480   3.7382120
   7.8901300  65.4627420   3.5771250   8.7212880  66.4938890   4.3104690
   8.9898190  59.2107860   3.9651050   9.3663010  58.3379740   3.8524720
   8.8917700  59.5466560   3.0741490   4.9610930  60.5519860   3.7593670
   5.4689150  61.0500830   4.3998690   5.4924170  59.7755060   3.5833030
  17.0621860  58.7225050   7.4623020  16.3574030  59.1106760   6.9438130
  17.3279780  59.4175340   8.0643950   3.2447030  55.1918420   8.0257090
   3.2465470  55.7090810   7.2202990   2.4151340  54.7148600   8.0027020
   4.4949880  64.8313600   6.2030590   4.1619260  65.4582520   6.8451660
   4.6716560  65.3575480   5.4232260  13.0083790  58.6458680   3.6706930
  12.3039360  58.9343570   4.2510040  13.3695950  59.4558790   3.3106490
   2.9262360  56.9028380   6.0327540   3.2679170  57.7470430   5.7381410
   1.9878170  57.0512120   6.1492880  16.0770710  58.0913470   4.0616140
  15.1295620  58.1252450   4.1931570  16.4020700  58.9052420   4.4465500
  11.5590750  65.0107780   5.9762200  11.9759540  64.7967890   5.1415660
  12.2830570  65.2680570   6.5470820  15.5052850  63.4095000   6.0678440
  14.6771480  63.4788090   5.5928570  16.1003330  63.9949310   5.5994270
  12.4694860  60.1964320   7.0133310  12.0566040  61.0218030   7.2673300
  11.7370810  59.6109360   6.8209670   5.0709350  66.6691780   4.0391190
   4.7737640  66.0637250   3.3598970   6.0209170  66.7069090   3.9280550
   3.3156270  59.7567430   5.6551020   3.8670860  59.8662770   4.8804270
   3.8299780  60.1305030   6.3706250   4.1627780  66.4073470  10.6898990
   3.2656310  66.6313440  10.9372390   4.1880650  66.5308410   9.7410390
   2.9899000  63.2786790   9.2656360   2.8506770  64.1509590   9.6343760
   2.1080360  62.9359600   9.1204300  16.1427420  67.1948440   9.9305690
  16.2690480  66.9560320   9.0122870  16.1848800  66.3632980  10.4027770
  15.9951430  59.2480900  10.8955430  15.3795700  59.7560570  10.3670890
  15.6747850  58.3479230  10.8381370   3.7695940  55.2204270   2.7582300
   3.3264090  56.0013810   2.4266820   4.3280930  55.5434160   3.4653240
   8.0565750  58.0872790   8.3617620   7.5945120  58.2955810   9.1737560
   7.6543860  57.2732140   8.0588290  13.0570260  59.3081740   9.4914280
  12.2063850  59.0087490   9.8123350  12.8972050  59.5523750   8.5798100
  10.1519970  60.8083490  11.5913070  10.4773380  59.9747240  11.2515300
  10.9400300  61.3312010  11.7391400   5.8071840  55.7651600   4.6171900
   6.1044170  56.6714430   4.5363920   6.3557400  55.2770380   4.0031470
   6.0009370  61.2423420  11.1523820   5.9052970  60.3018150  11.0024220
   6.8441350  61.4638490  10.7571890   7.7064960  57.7372060  12.3754340
   7.0163280  57.5444260  13.0100430   8.4497260  58.0206700  12.9078640
   9.9827930  61.5770500   5.2108260   9.2509050  62.0857310   5.5598360
   9.5852270  60.7600480   4.9097040   6.4205320  58.2524700   3.6160750
   6.4241380  57.8114650   2.7665290   7.3156440  58.5742030   3.7232570
  10.4453840  57.0304180   4.6231200  10.4626580  57.4812830   5.4673050
  10.1969420  56.1309820   4.8364640  13.8724590  54.4436360  10.4617580
  14.1970360  53.7126020  10.9875560  13.9081100  54.1250000   9.5598570
   6.7213290  62.3126480   5.3626160   7.0883420  61.8385050   6.1087500
   6.5318350  63.1868050   5.7034500   4.5112660  61.3535120   7.6810370
   4.2069730  62.2327100   7.9060730   5.4659120  61.4134910   7.7167810
  13.7982430  64.5561470   4.0703610  14.5181550  65.0516760   3.6799720
  13.5964250  63.8779360   3.4257480   9.1801230  64.6270530   9.9572610
   9.1138540  63.7066200   9.7030200   8.5506370  64.7245970  10.6717250
   3.0831850  65.2276490   1.9156030   3.6010520  64.4244750   1.8612920
   2.6315870  65.1655630   2.7572860   3.7689510  62.6522100  11.7121280
   3.4689650  62.7979280  10.8149100   4.5400750  62.0927390  11.6194670
  15.3229170  64.0898440   9.0544990  14.5977360  64.6827220   8.8574380
  15.8504630  64.0821980   8.2558360  10.8528760  65.8158610   2.5528840
  11.2052580  65.2186740   1.8930210   9.9691090  65.4902840   2.7237090
  10.6363740  58.1753410   7.2555280  11.0044560  57.3548620   7.5834850
   9.7761940  58.2355300   7.6710930   7.5965730  60.8293000   7.4793250
   8.0950980  61.3038820   8.1445100   7.7388680  59.9056520   7.6863280
  14.8032590  57.0460960   8.3221640  14.3006190  57.7866360   8.6615450
  15.6189250  57.4344960   8.0058430  13.0954600  62.2894140   1.7683000
  12.1544740  62.3044370   1.9430690  13.4098670  61.5030100   2.2143300
  10.4120620  66.8460140  12.2515380   9.8058780  66.8691740  11.5111130
  10.1074730  66.1143180  12.7882630   6.3491740  64.6324720  10.7811540
   5.5837410  65.2009720  10.6966210   6.5307700  64.3400930   9.8879770
  13.4915090  66.3630050  11.3386560  14.2324560  66.7005810  10.8354020
  12.7287770  66.5322110  10.7856330   3.2682690  59.9475420  10.1100580
   2.7379150  59.4566370   9.4823920   3.9370760  60.3759620   9.5758510
  12.1660750  64.4144880   9.8741770  12.5801770  64.5689960  10.7232190
  11.2311750  64.5400100  10.0367550  12.6382920  61.7541040  11.8780920
  13.2203690  60.9993360  11.7901400  12.8144690  62.2848480  11.1012400
   3.7554990  56.9137790  10.1897870   3.6611860  56.2958540   9.4648740
   3.1752380  57.6404080   9.9627780   6.5216430  55.4711030   7.2225260
   6.0733730  55.4935290   6.3770810   5.8881630  55.0730050   7.8195560
   6.9275980  64.3665360   7.8437700   7.3464090  65.2098090   7.6713940
   6.0084610  64.5037400   7.6144480   9.2639880  62.0981540   9.2275540
   9.3836090  61.5022680   9.9670380  10.1233880  62.1351230   8.8076840
  11.6027780  62.6518730   7.8038050  11.0763000  63.1761350   7.2003190
  11.9459120  63.2846120   8.4347780   6.0308650  58.6402890  10.4851360
   6.6208340  58.3318740  11.1729180   5.2128890  58.1682640  10.6411260
  10.8502080  58.2568700  10.7184380  10.1617600  57.5950240  10.6534370
  11.5708100  57.8106970  11.1632840  16.8643170  64.9447160   2.2320480
  17.2352000  64.1614480   1.8256450  17.5045100  65.6336260   2.0537780
  13.8476930  66.3283740   7.6450800  13.0336770  66.7580900   7.9076590
  14.2551130  66.9402150   7.0319850  15.1967330  61.4671940   9.1720020
  14.9653420  61.2384690   8.2717970  15.4571880  62.3871490   9.1264910
  13.6355400  56.6928370  11.9499720  14.5125580  56.7011770  12.3333720
  13.6476240  55.9559210  11.3392070  15.0818670  60.5457910   2.8387740
  15.6056150  60.0520560   2.2077910  15.6678090  60.6808270   3.5835310
  15.2608390  60.6297780   6.3607290  14.3111100  60.5961320   6.4752280
  15.4421400  61.5397890   6.1257060  14.3471520  54.3786340   7.7700830
  14.9843740  54.9920480   8.1360020  14.4946410  54.4147000   6.8250060
   7.7176000  55.5312530  10.6775930   7.6564890  56.1234360  11.4271340
   8.6576380  55.4238490  10.5326190  10.3550560  55.1882590  10.3168220
  10.9690970  55.5061880   9.6549300  10.9000120  54.7031180  10.9364080
  11.0958600  53.7514730   6.6437510  10.2218440  54.0849840   6.4410440
  10.9869350  53.2787910   7.4689380  12.0030580  55.9585600   8.0279230
  11.6743940  55.1437360   7.6480960  12.9512880  55.9155410   7.9044920
   8.8433420  54.6684570   5.5830420   8.0605210  55.1430070   5.8627180
   8.5496350  53.7639400   5.4743600  13.3954490  55.3707670   3.6279510
  13.8362580  55.3152770   2.7801110  13.1262080  56.2865680   3.6989690
  11.2312620  53.7513770   2.3329520  11.8341990  54.3233980   2.8078040
  10.4905610  54.3153210   2.1103420   4.8792380  54.5155220  12.1343990
   4.5976650  55.0188820  11.3704810   5.2612080  53.7176970  11.7686120
  11.4807840  53.9308800  12.7124460  11.3673290  54.2503410  13.6075980
  12.2977580  54.3321310  12.4161740  10.3865990  43.1757780  58.1733160
  10.3060040  42.2612390  57.9024870   9.9730410  43.6724850  57.4672870
   8.5184030  44.9536800  60.0542430   7.7426130  44.4737240  60.3441000
   9.1696960  44.2742450  59.8798590  12.5391460  49.3596990  58.8341560
  12.0772990  48.5884230  59.1628730  13.3517010  49.3863060  59.3394010
   2.5151120  49.2996700  61.1276210   2.8179160  48.4094440  60.9486430
   3.2594710  49.8566920  60.8998460   8.7654770  51.6455000  58.4545550
   8.1466210  52.1012500  57.8839990   9.6206550  51.8006460  58.0535250
   7.9593020  47.6293990  60.0612590   7.8901300  46.6883930  59.9001720
   8.7212880  47.7195400  60.6335160   8.9898190  40.4364370  60.2881520
   9.3663010  39.5636250  60.1755190   8.8917700  40.7723070  59.3971960
   3.1203200  38.8090000  55.7498960   3.2269950  39.7093730  56.0567720
   2.2095560  38.7607970  55.4593610  12.7722310  37.9314810  57.2209860
  13.5931930  37.4411380  57.2635340  12.8056390  38.5212470  57.9741700
   4.9610930  41.7776370  60.0824140   5.4689150  42.2757340  60.7229160
   5.4924170  41.0011570  59.9063500   9.6318120  46.5294240  55.8477460
   9.0135390  46.9943690  55.2840180  10.1441370  47.2221720  56.2646970
  13.0083790  39.8715190  59.9937400  12.3039360  40.1600080  60.5740510
  13.3695950  40.6815300  59.6336960  16.0770710  39.3169980  60.3846610
  15.1295620  39.3508960  60.5162040  16.4020700  40.1308930  60.7695970
   6.6090250  35.6167160  58.6802600   6.9165230  35.0614050  57.9638100
   5.6790950  35.7511620  58.4975590  12.1605310  51.3334450  60.9710060
  12.1732470  50.9296740  60.1032320  11.6080530  52.1081740  60.8671490
  13.4550730  48.0550670  56.0600230  13.3447060  47.1125000  56.1849650
  13.4518980  48.4166310  56.9462990   8.9971010  43.6815990  55.4162720
   8.0700290  43.6153370  55.6451190   9.1495830  44.6196120  55.3017960
   8.9840090  39.9532990  52.4129880   8.0443760  40.1146950  52.4982340
   9.3023350  40.6718670  51.8665870  13.0268300  45.2436290  55.9197970
  12.4080720  44.9055840  55.2724270  13.0092750  44.5996050  56.6277160
   4.6027650  44.2080730  58.1982450   4.1984650  43.4957980  57.7028350
   4.6890770  43.8633970  59.0870490   5.0709350  47.8948290  60.3621660
   4.7737640  47.2893760  59.6829440   6.0209170  47.9325600  60.2511020
  11.2033000  44.4823100  52.9270720  11.6426280  43.6445530  52.7808540
  11.9161420  45.1152500  53.0134860   9.3128380  49.4219170  56.8951960
   9.7524290  50.1643500  56.4807350   9.2515270  49.6645740  57.8190920
  14.7850140  35.7365910  51.2411760  14.4722800  35.8292740  52.1410830
  15.5462610  36.3146940  51.1909190  11.9798560  52.4088290  54.2514970
  11.8199700  52.1191230  55.1496800  11.8145270  51.6328420  53.7160200
   4.4586940  52.1886820  56.0286590   4.2829420  51.2722360  55.8154390
   3.6042680  52.5474110  56.2684390  11.6824690  49.9175850  52.8112970
  10.9889850  49.9153140  52.1515250  12.4247550  49.4935170  52.3807140
  11.2474620  51.5438560  56.8861460  11.7031570  50.7627940  57.2000080
  11.5867140  52.2545380  57.4302640   3.7695940  36.4460780  59.0812770
   3.3264090  37.2270320  58.7497290   4.3280930  36.7690670  59.7883710
   6.8854760  36.0671480  53.9618600   6.2608940  36.0631350  54.6871910
   6.7984880  35.2002440  53.5654570   5.8071840  36.9908110  60.9402370
   6.1044170  37.8970940  60.8594390   6.3557400  36.5026890  60.3261940
   3.5610160  41.5694350  56.8094020   3.3351080  41.3531520  57.7140640
   2.7802690  42.0022810  56.4639990  10.7907920  41.5757720  55.4084670
  10.1916810  42.2993520  55.2248290  11.3387530  41.5134500  54.6261120
   9.3972790  40.2121260  57.4387950   9.7902360  40.5293460  56.6256640
   9.7589640  39.3333140  57.5532470   6.4205320  39.4781210  59.9391220
   6.4241380  39.0371160  59.0895760   7.3156440  39.7998540  60.0463040
   6.4825470  40.4793290  52.9297980   6.6038290  40.4379770  53.8783800
   6.0973980  41.3417440  52.7744710   5.4946970  42.7894430  52.3281280
   4.9263870  42.3412680  51.7017190   6.2035970  43.1487210  51.7946430
   3.0394450  46.7852620  54.6007690   2.2656710  46.2450240  54.4406410
   3.7689080  46.2659230  54.2625450  13.7982430  45.7817980  60.3934080
  14.5181550  46.2773270  60.0030190  13.5964250  45.1035870  59.7487950
   9.2592370  37.1755940  54.5363470   8.4456980  36.6769110  54.4608780
   9.0654320  38.0154190  54.1199820  11.9740760  41.5475590  52.8325630
  12.8620380  41.8592820  52.6576970  11.9445850  40.6747840  52.4406210
   3.0831850  46.4533000  58.2386500   3.6010520  45.6501260  58.1843390
   2.6315870  46.3912140  59.0803330   7.9701350  47.7199280  53.5113800
   8.3117050  48.4641510  53.0157120   7.1414060  48.0330400  53.8738630
  14.2455030  42.8587430  52.3005490  14.1618750  43.2901650  51.4501930
  14.9649220  43.3185780  52.7332310  15.2742280  49.7129690  55.0287620
  14.6318440  49.0585310  55.3031340  14.8872940  50.1184780  54.2528290
  10.8528760  47.0415120  58.8759310  11.2052580  46.4443250  58.2160680
   9.9691090  46.7159350  59.0467560   6.9392040  47.8012810  56.2829720
   7.6263170  48.3482020  56.6637310   6.1524460  48.3453540  56.3179330
   6.2419250  44.8058840  55.8955080   6.6982030  45.6164090  56.1215270
   5.8907460  44.4881980  56.7273570  13.6639660  48.6046150  51.5663970
  13.4377240  47.8876590  52.1588610  13.2735860  48.3558590  50.7285720
  13.2455910  46.5218090  53.2278130  12.9577610  46.9830780  54.0156010
  14.0408080  46.0615860  53.4962350   5.4624310  50.0144210  53.1582100
   5.4534410  50.7473900  52.5426610   4.5422670  49.7675790  53.2509060
  14.0025770  38.3566860  54.3873310  13.3738930  38.4612530  53.6731540
  13.5077690  38.5763640  55.1767190   8.4483910  50.0772450  51.8207290
   8.5495890  49.8736440  50.8909270   7.5485650  49.8230730  52.0255070
   5.9709800  40.6352810  55.8031190   5.2625950  41.1039150  56.2444800
   6.2554280  39.9774820  56.4376380  10.0025230  37.3603470  57.2426980
   9.8793010  37.3789600  56.2936490  10.9509790  37.4082410  57.3625380
   7.0902020  52.5958770  56.5154960   7.3443520  52.5580160  55.5934330
   6.1414500  52.4692100  56.5083210   4.1744820  38.9437890  53.1781900
   5.0235350  39.3808040  53.1122090   3.8076090  39.2558150  54.0053960
  13.0954600  43.5150650  58.0913470  12.1544740  43.5300880  58.2661160
  13.4098670  42.7286610  58.5373770   3.0736240  45.1970250  51.6517430
   3.8399510  45.0851610  52.2142860   3.1510930  44.5008220  50.9994200
   1.7683000  42.6295320  52.3350320   1.8486590  41.6822830  52.4467720
   2.6602750  42.9602200  52.4410980  15.0980180  50.6859500  59.7667730
  15.2227600  51.5090670  60.2391540  15.9645740  50.4750230  59.4191880
   2.5697710  52.7790710  59.4384860   3.3060190  52.2306170  59.7093430
   2.9538630  53.6446720  59.2990850   5.6800020  51.9521020  51.2610430
   6.4728630  52.2409850  50.8092220   5.1604370  51.5213190  50.5822910
  14.7330190  51.1791150  52.6847170  14.4471700  50.7656290  51.8701350
  14.5349740  52.1078860  52.5647690   6.1977420  47.1724430  51.1252780
   6.0928060  46.5576780  51.8514160   6.0301640  46.6490320  50.3415790
   9.4380150  46.2344460  51.7294770   8.8890250  46.6813760  52.3737510
  10.0599410  45.7293710  52.2532440   5.1055270  45.1935380  53.6260070
   5.5271690  45.0275250  54.4691460   5.2306110  44.3835610  53.1315210
   7.6182910  44.2172990  50.8737170   8.1388570  43.5022010  50.5078320
   8.2651310  44.8558860  51.1737680   4.0014170  41.2668610  50.5718230
   3.8003230  40.4035970  50.9331570   3.8306220  41.1801970  49.6339830
  11.4802480  36.0776840  53.1005110  11.7604770  35.2344740  53.4564530
  10.7068210  36.3099950  53.6143860   2.7996970  38.3669230  50.5596110
   3.1022870  38.3736660  49.6515260   3.5391560  38.0167090  51.0563770
   6.0181900  37.3103850  51.5452310   5.6703900  36.6327840  50.9654760
   6.2194670  36.8493360  52.3595700   8.1830940  52.2984600  53.1638910
   9.0781730  52.6369570  53.1857670   8.2148570  51.5764010  52.5363190
   1.8227100  47.6711650  51.3925910   2.2601970  48.2141320  52.0483490
   2.3074830  46.8458600  51.4022250   3.6334820  48.7909690  56.5048140
   3.3330360  48.6674660  57.4052050   3.5272310  47.9318280  56.0963870
  16.4026740  48.5706090  51.2074820  15.5719700  48.6382740  51.6782050
  16.5798570  49.4610210  50.9041680  15.8583200  45.3153570  53.7109020
  16.6202110  45.8850220  53.8168710  15.8737570  44.7480770  54.4817330
  16.8643170  46.1703670  58.5550950  17.2352000  45.3870990  58.1486920
  17.5045100  46.8592770  58.3768250  15.9102370  45.6087940  50.8681540
  16.1851210  46.5166820  50.7400760  15.7213110  45.5450470  51.8043530
  12.3077980  38.6332790  52.1635170  12.7262860  38.4463770  51.3231830
  12.0014040  37.7811840  52.4738100  15.8067710  43.5456930  55.8610970
  15.4311310  42.7784860  55.4292260  15.0770830  43.9279630  56.3485900
  15.0818670  41.7714420  59.1618210  15.6056150  41.2777070  58.5308380
  15.6678090  41.9064780  59.9065780  14.5718640  41.0287770  55.1010620
  15.0677760  40.7958640  55.8859500  14.3734710  40.1899610  54.6848260
  16.0005800  39.6648720  57.6348300  15.8905080  39.5104760  58.5730570
  16.7613390  39.1369660  57.3923710  16.8896070  37.4956640  50.8754440
  17.8145380  37.3637820  50.6672730  16.8671860  37.5749460  51.8290890
  16.9634560  38.2667300  53.5011150  16.1686060  38.2012420  54.0304060
  17.1677840  39.2017940  53.4896500  13.9052980  52.3058850  57.4949540
  14.5012050  51.9843420  56.8183960  14.1631130  51.8330670  58.2862810
  14.4565190  52.9554150  61.3247270  13.9968160  53.7069960  60.9505290
  13.8277650  52.2360620  61.2662070   4.8860910  51.2642390  60.4995400
   5.4025930  50.6529750  59.9743660   5.5358290  51.7671170  60.9906410
  13.3954490  36.5964180  59.9509980  13.8362580  36.5409280  59.1031580
  13.1262080  37.5122190  60.0220160  15.2593060  36.2279420  57.9618800
  15.1981460  35.2840640  57.8149820  16.0385090  36.3359510  58.5072260
   6.7287640  38.3127830  57.4176920   5.9162150  37.9384720  57.0772800
   7.2329280  37.5572910  57.7198110  11.2312620  34.9770280  58.6559990
  11.8341990  35.5490490  59.1308510  10.4905610  35.5409720  58.4333890
  14.3747220  35.3791840  53.9300270  14.5697850  36.2775290  54.1967700
  13.5877090  35.1478920  54.4233220   2.5598980  36.7252610  52.9676580
   3.0891740  35.9382410  52.8384530   3.1927300  37.4043800  53.2012110
   4.7536820  36.4627750  56.0221970   4.1239560  35.7615060  56.1892100
   4.2141960  37.2231880  55.8055130  15.9273830  52.6192550  55.6906830
  16.1026020  51.9330290  55.0467750  15.2295400  53.1439600  55.2983500
   3.7701480  53.0087390  53.2442140   4.5020300  52.7246670  52.6966030
   4.0295150  52.7700670  54.1341520   2.9316270  49.1252120  53.2488470
   2.3025150  49.5937220  53.7974300   3.0464100  48.2801340  53.6834660
  10.3865990  43.1757780  39.3989670  10.3060040  42.2612390  39.1281380
   9.9730410  43.6724850  38.6929380   8.5184030  44.9536800  41.2798940
   7.7426130  44.4737240  41.5697510   9.1696960  44.2742450  41.1055100
  12.5391460  49.3596990  40.0598070  12.0772990  48.5884230  40.3885240
  13.3517010  49.3863060  40.5650520   2.5151120  49.2996700  42.3532720
   2.8179160  48.4094440  42.1742940   3.2594710  49.8566920  42.1254970
   8.7654770  51.6455000  39.6802060   8.1466210  52.1012500  39.1096500
   9.6206550  51.8006460  39.2791760   7.9593020  47.6293990  41.2869100
   7.8901300  46.6883930  41.1258230   8.7212880  47.7195400  41.8591670
   8.9898190  40.4364370  41.5138030   9.3663010  39.5636250  41.4011700
   8.8917700  40.7723070  40.6228470   3.1203200  38.8090000  36.9755470
   3.2269950  39.7093730  37.2824230   2.2095560  38.7607970  36.6850120
  12.7722310  37.9314810  38.4466370  13.5931930  37.4411380  38.4891850
  12.8056390  38.5212470  39.1998210   4.9610930  41.7776370  41.3080650
   5.4689150  42.2757340  41.9485670   5.4924170  41.0011570  41.1320010
  17.0621860  39.9481560  45.0110000  16.3574030  40.3363270  44.4925110
  17.3279780  40.6431850  45.6130930   3.2447030  36.4174930  45.5744070
   3.2465470  36.9347320  44.7689970   2.4151340  35.9405110  45.5514000
   9.6318120  46.5294240  37.0733970   9.0135390  46.9943690  36.5096690
  10.1441370  47.2221720  37.4903480   4.4949880  46.0570110  43.7517570
   4.1619260  46.6839030  44.3938640   4.6716560  46.5831990  42.9719240
  13.0083790  39.8715190  41.2193910  12.3039360  40.1600080  41.7997020
  13.3695950  40.6815300  40.8593470   2.9262360  38.1284890  43.5814520
   3.2679170  38.9726940  43.2868390   1.9878170  38.2768630  43.6979860
   3.7068980  48.0250910  45.5666750   4.3242980  48.7001990  45.2851200
   2.8462100  48.4338890  45.4754250  14.6246570  49.4890320  43.4821390
  13.9410090  50.1589430  43.4738060  15.1640860  49.6870970  42.7166250
  16.0770710  39.3169980  41.6103120  15.1295620  39.3508960  41.7418550
  16.4020700  40.1308930  41.9952480   6.6090250  35.6167160  39.9059110
   6.9165230  35.0614050  39.1894610   5.6790950  35.7511620  39.7232100
  12.1605310  51.3334450  42.1966570  12.1732470  50.9296740  41.3288830
  11.6080530  52.1081740  42.0928000  13.4550730  48.0550670  37.2856740
  13.3447060  47.1125000  37.4106160  13.4518980  48.4166310  38.1719500
  11.5590750  46.2364290  43.5249180  11.9759540  46.0224400  42.6902640
  12.2830570  46.4937080  44.0957800   8.9971010  43.6815990  36.6419230
   8.0700290  43.6153370  36.8707700   9.1495830  44.6196120  36.5274470
   8.9840090  39.9532990  33.6386390   8.0443760  40.1146950  33.7238850
   9.3023350  40.6718670  33.0922380  15.5052850  44.6351510  43.6165420
  14.6771480  44.7044600  43.1415550  16.1003330  45.2205820  43.1481250
  13.0268300  45.2436290  37.1454480  12.4080720  44.9055840  36.4980780
  13.0092750  44.5996050  37.8533670  12.4694860  41.4220830  44.5620290
  12.0566040  42.2474540  44.8160280  11.7370810  40.8365870  44.3696650
   4.6027650  44.2080730  39.4238960   4.1984650  43.4957980  38.9284860
   4.6890770  43.8633970  40.3127000   5.0709350  47.8948290  41.5878170
   4.7737640  47.2893760  40.9085950   6.0209170  47.9325600  41.4767530
   3.3156270  40.9823940  43.2038000   3.8670860  41.0919280  42.4291250
   3.8299780  41.3561540  43.9193230  13.1594960  51.4680160  45.2501270
  12.6825520  52.2752350  45.0573880  12.4756750  50.8158490  45.4027480
   4.1627780  47.6329980  48.2385970   3.2656310  47.8569950  48.4859370
   4.1880650  47.7564920  47.2897370  11.2033000  44.4823100  34.1527230
  11.6426280  43.6445530  34.0065050  11.9161420  45.1152500  34.2391370
   2.9899000  44.5043300  46.8143340   2.8506770  45.3766100  47.1830740
   2.1080360  44.1616110  46.6691280   9.3128380  49.4219170  38.1208470
   9.7524290  50.1643500  37.7063860   9.2515270  49.6645740  39.0447430
   4.7879350  50.4465000  49.0228490   4.7594780  50.8507950  48.1556920
   4.6244320  49.5175360  48.8600090  14.7850140  35.7365910  32.4668270
  14.4722800  35.8292740  33.3667340  15.5462610  36.3146940  32.4165700
  16.7394170  51.2292100  50.3192660  17.2153890  51.7074990  50.9981740
  17.3601330  51.1609590  49.5938160  16.1427420  48.4204950  47.4792670
  16.2690480  48.1816830  46.5609850  16.1848800  47.5889490  47.9514750
  10.0044160  52.1232950  46.0487480  10.5188830  52.0340960  46.8509910
   9.1613240  52.4692650  46.3415390  11.9798560  52.4088290  35.4771480
  11.8199700  52.1191230  36.3753310  11.8145270  51.6328420  34.9416710
   4.4586940  52.1886820  37.2543100   4.2829420  51.2722360  37.0410900
   3.6042680  52.5474110  37.4940900  11.6824690  49.9175850  34.0369480
  10.9889850  49.9153140  33.3771760  12.4247550  49.4935170  33.6063650
  11.2474620  51.5438560  38.1117970  11.7031570  50.7627940  38.4256590
  11.5867140  52.2545380  38.6559150  15.9951430  40.4737410  48.4442410
  15.3795700  40.9817080  47.9157870  15.6747850  39.5735740  48.3868350
   3.7695940  36.4460780  40.3069280   3.3264090  37.2270320  39.9753800
   4.3280930  36.7690670  41.0140220   8.0565750  39.3129300  45.9104600
   7.5945120  39.5212320  46.7224540   7.6543860  38.4988650  45.6075270
  13.0570260  40.5338250  47.0401260  12.2063850  40.2344000  47.3610330
  12.8972050  40.7780260  46.1285080  10.1519970  42.0340000  49.1400050
  10.4773380  41.2003750  48.8002280  10.9400300  42.5568520  49.2878380
   6.8854760  36.0671480  35.1875110   6.2608940  36.0631350  35.9128420
   6.7984880  35.2002440  34.7911080   5.8071840  36.9908110  42.1658880
   6.1044170  37.8970940  42.0850900   6.3557400  36.5026890  41.5518450
   3.5610160  41.5694350  38.0350530   3.3351080  41.3531520  38.9397150
   2.7802690  42.0022810  37.6896500  10.7907920  41.5757720  36.6341180
  10.1916810  42.2993520  36.4504800  11.3387530  41.5134500  35.8517630
   6.0009370  42.4679930  48.7010800   5.9052970  41.5274660  48.5511200
   6.8441350  42.6895000  48.3058870   9.3972790  40.2121260  38.6644460
   9.7902360  40.5293460  37.8513150   9.7589640  39.3333140  38.7788980
   7.7064960  38.9628570  49.9241320   7.0163280  38.7700770  50.5587410
   8.4497260  39.2463210  50.4565620   9.9827930  42.8027010  42.7595240
   9.2509050  43.3113820  43.1085340   9.5852270  41.9856990  42.4584020
   6.4205320  39.4781210  41.1647730   6.4241380  39.0371160  40.3152270
   7.3156440  39.7998540  41.2719550   6.4825470  40.4793290  34.1554490
   6.6038290  40.4379770  35.1040310   6.0973980  41.3417440  34.0001220
  10.4453840  38.2560690  42.1718180  10.4626580  38.7069340  43.0160030
  10.1969420  37.3566330  42.3851620   5.4946970  42.7894430  33.5537790
   4.9263870  42.3412680  32.9273700   6.2035970  43.1487210  33.0202940
  13.8724590  35.6692870  48.0104560  14.1970360  34.9382530  48.5362540
  13.9081100  35.3506510  47.1085550   6.7213290  43.5382990  42.9113140
   7.0883420  43.0641560  43.6574480   6.5318350  44.4124560  43.2521480
   4.5112660  42.5791630  45.2297350   4.2069730  43.4583610  45.4547710
   5.4659120  42.6391420  45.2654790   3.0394450  46.7852620  35.8264200
   2.2656710  46.2450240  35.6662920   3.7689080  46.2659230  35.4881960
  13.7982430  45.7817980  41.6190590  14.5181550  46.2773270  41.2286700
  13.5964250  45.1035870  40.9744460   9.2592370  37.1755940  35.7619980
   8.4456980  36.6769110  35.6865290   9.0654320  38.0154190  35.3456330
   9.1801230  45.8527040  47.5059590   9.1138540  44.9322710  47.2517180
   8.5506370  45.9502480  48.2204230  11.9740760  41.5475590  34.0582140
  12.8620380  41.8592820  33.8833480  11.9445850  40.6747840  33.6662720
   3.0831850  46.4533000  39.4643010   3.6010520  45.6501260  39.4099900
   2.6315870  46.3912140  40.3059840   7.9701350  47.7199280  34.7370310
   8.3117050  48.4641510  34.2413630   7.1414060  48.0330400  35.0995140
   3.7689510  43.8778610  49.2608260   3.4689650  44.0235790  48.3636080
   4.5400750  43.3183900  49.1681650   9.1117960  48.6747610  47.2563390
   9.1262500  47.7428570  47.0382300   8.4043060  48.7607370  47.8953160
  14.2455030  42.8587430  33.5262000  14.1618750  43.2901650  32.6758440
  14.9649220  43.3185780  33.9588820  15.3229170  45.3154950  46.6031970
  14.5977360  45.9083730  46.4061360  15.8504630  45.3078490  45.8045340
  15.2742280  49.7129690  36.2544130  14.6318440  49.0585310  36.5287850
  14.8872940  50.1184780  35.4784800  10.8528760  47.0415120  40.1015820
  11.2052580  46.4443250  39.4417190   9.9691090  46.7159350  40.2724070
   6.9392040  47.8012810  37.5086230   7.6263170  48.3482020  37.8893820
   6.1524460  48.3453540  37.5435840   6.2419250  44.8058840  37.1211590
   6.6982030  45.6164090  37.3471780   5.8907460  44.4881980  37.9530080
   8.5451860  50.3165180  44.3503890   9.1894080  50.5224560  45.0277310
   8.9081300  49.5553580  43.8974740   9.8183940  48.3197530  43.0681340
  10.4606170  47.6190690  43.1813510  10.3433290  49.0995970  42.8878230
  13.6639660  48.6046150  32.7920480  13.4377240  47.8876590  33.3845120
  13.2735860  48.3558590  31.9542230  11.5921560  49.1192430  46.2717400
  11.9277800  49.7059120  46.9495320  10.6721900  48.9885140  46.5015190
  13.2455910  46.5218090  34.4534640  12.9577610  46.9830780  35.2412520
  14.0408080  46.0615860  34.7218860   7.4210140  49.1683760  49.4405460
   7.1007010  48.4493000  49.9851150   6.7468500  49.8438830  49.5141520
   5.4624310  50.0144210  34.3838610   5.4534410  50.7473900  33.7683120
   4.5422670  49.7675790  34.4765570  10.6363740  39.4009920  44.8042260
  11.0044560  38.5805130  45.1321830   9.7761940  39.4611810  45.2197910
  14.0025770  38.3566860  35.6129820  13.3738930  38.4612530  34.8988050
  13.5077690  38.5763640  36.4023700   8.4483910  50.0772450  33.0463800
   8.5495890  49.8736440  32.1165780   7.5485650  49.8230730  33.2511580
   5.9709800  40.6352810  37.0287700   5.2625950  41.1039150  37.4701310
   6.2554280  39.9774820  37.6632890   7.5965730  42.0549510  45.0280230
   8.0950980  42.5295330  45.6932080   7.7388680  41.1313030  45.2350260
  10.0025230  37.3603470  38.4683490   9.8793010  37.3789600  37.5193000
  10.9509790  37.4082410  38.5881890   7.0902020  52.5958770  37.7411470
   7.3443520  52.5580160  36.8190840   6.1414500  52.4692100  37.7339720
   4.1744820  38.9437890  34.4038410   5.0235350  39.3808040  34.3378600
   3.8076090  39.2558150  35.2310470  14.8032590  38.2717470  45.8708620
  14.3006190  39.0122870  46.2102430  15.6189250  38.6601470  45.5545410
  13.0954600  43.5150650  39.3169980  12.1544740  43.5300880  39.4917670
  13.4098670  42.7286610  39.7630280   3.0736240  45.1970250  32.8773940
   3.8399510  45.0851610  33.4399370   3.1510930  44.5008220  32.2250710
   1.7683000  42.6295320  33.5606830   1.8486590  41.6822830  33.6724230
   2.6602750  42.9602200  33.6667490  15.0980180  50.6859500  40.9924240
  15.2227600  51.5090670  41.4648050  15.9645740  50.4750230  40.6448390
   2.5697710  52.7790710  40.6641370   3.3060190  52.2306170  40.9349940
   2.9538630  53.6446720  40.5247360   5.6800020  51.9521020  32.4866940
   6.4728630  52.2409850  32.0348730   5.1604370  51.5213190  31.8079420
  10.4120620  48.0716650  49.8002360   9.8058780  48.0948250  49.0598110
  10.1074730  47.3399690  50.3369610  11.8420990  51.7996940  48.4111770
  12.7942740  51.7154960  48.3612010  11.6949210  52.4638650  49.0845560
  14.7330190  51.1791150  33.9103680  14.4471700  50.7656290  33.0957860
  14.5349740  52.1078860  33.7904200   6.1977420  47.1724430  32.3509290
   6.0928060  46.5576780  33.0770670   6.0301640  46.6490320  31.5672300
   6.3491740  45.8581230  48.3298520   5.5837410  46.4266230  48.2453190
   6.5307700  45.5657440  47.4366750   9.4380150  46.2344460  32.9551280
   8.8890250  46.6813760  33.5994020  10.0599410  45.7293710  33.4788950
  13.4915090  47.5886560  48.8873540  14.2324560  47.9262320  48.3841000
  12.7287770  47.7578620  48.3343310   5.1055270  45.1935380  34.8516580
   5.5271690  45.0275250  35.6947970   5.2306110  44.3835610  34.3571720
   3.2682690  41.1731930  47.6587560   2.7379150  40.6822880  47.0310900
   3.9370760  41.6016130  47.1245490   7.6182910  44.2172990  32.0993680
   8.1388570  43.5022010  31.7334830   8.2651310  44.8558860  32.3994190
  12.1660750  45.6401390  47.4228750  12.5801770  45.7946470  48.2719170
  11.2311750  45.7656610  47.5854530  12.6382920  42.9797550  49.4267900
  13.2203690  42.2249870  49.3388380  12.8144690  43.5104990  48.6499380
   3.7554990  38.1394300  47.7384850   3.6611860  37.5215050  47.0135720
   3.1752380  38.8660590  47.5114760   6.5216430  36.6967540  44.7712240
   6.0733730  36.7191800  43.9257790   5.8881630  36.2986560  45.3682540
   6.9275980  45.5921870  45.3924680   7.3464090  46.4354600  45.2200920
   6.0084610  45.7293910  45.1631460   9.2639880  43.3238050  46.7762520
   9.3836090  42.7279190  47.5157360  10.1233880  43.3607740  46.3563820
  11.6027780  43.8775240  45.3525030  11.0763000  44.4017860  44.7490170
  11.9459120  44.5102630  45.9834760   4.0014170  41.2668610  31.7974740
   3.8003230  40.4035970  32.1588080   3.8306220  41.1801970  30.8596340
   4.7783400  51.8974880  46.5082410   4.2404490  52.6220940  46.1891110
   5.0317360  51.4205220  45.7179750   6.0308650  39.8659400  48.0338340
   6.6208340  39.5575250  48.7216160   5.2128890  39.3939150  48.1898240
  10.8502080  39.4825210  48.2671360  10.1617600  38.8206750  48.2021350
  11.5708100  39.0363480  48.7119820  11.4802480  36.0776840  34.3261620
  11.7604770  35.2344740  34.6821040  10.7068210  36.3099950  34.8400370
   2.7996970  38.3669230  31.7852620   3.1022870  38.3736660  30.8771770
   3.5391560  38.0167090  32.2820280   7.6345610  53.1326090  46.7669060
   7.5604310  54.0361230  47.0741430   6.7324450  52.8137990  46.7391130
   6.0181900  37.3103850  32.7708820   5.6703900  36.6327840  32.1911270
   6.2194670  36.8493360  33.5852210   8.1830940  52.2984600  34.3895420
   9.0781730  52.6369570  34.4114180   8.2148570  51.5764010  33.7619700
   1.8227100  47.6711650  32.6182420   2.2601970  48.2141320  33.2740000
   2.3074830  46.8458600  32.6278760   3.6334820  48.7909690  37.7304650
   3.3330360  48.6674660  38.6308560   3.5272310  47.9318280  37.3220380
  15.1625290  50.8288270  47.0961620  14.5627280  50.8880830  46.3525540
  15.2919190  49.8893250  47.2258470  16.4026740  48.5706090  32.4331330
  15.5719700  48.6382740  32.9038560  16.5798570  49.4610210  32.1298190
  15.8583200  45.3153570  34.9365530  16.6202110  45.8850220  35.0425220
  15.8737570  44.7480770  35.7073840  16.8643170  46.1703670  39.7807460
  17.2352000  45.3870990  39.3743430  17.5045100  46.8592770  39.6024760
  13.8476930  47.5540250  45.1937780  13.0336770  47.9837410  45.4563570
  14.2551130  48.1658660  44.5806830  15.9102370  45.6087940  32.0938050
  16.1851210  46.5166820  31.9657270  15.7213110  45.5450470  33.0300040
  12.3077980  38.6332790  33.3891680  12.7262860  38.4463770  32.5488340
  12.0014040  37.7811840  33.6994610  15.8067710  43.5456930  37.0867480
  15.4311310  42.7784860  36.6548770  15.0770830  43.9279630  37.5742410
  15.1967330  42.6928450  46.7207000  14.9653420  42.4641200  45.8204950
  15.4571880  43.6128000  46.6751890  13.6355400  37.9184880  49.4986700
  14.5125580  37.9268280  49.8820700  13.6476240  37.1815720  48.8879050
  15.0818670  41.7714420  40.3874720  15.6056150  41.2777070  39.7564890
  15.6678090  41.9064780  41.1322290  15.2608390  41.8554290  43.9094270
  14.3111100  41.8217830  44.0239260  15.4421400  42.7654400  43.6744040
  14.5718640  41.0287770  36.3267130  15.0677760  40.7958640  37.1116010
  14.3734710  40.1899610  35.9104770  16.0005800  39.6648720  38.8604810
  15.8905080  39.5104760  39.7987080  16.7613390  39.1369660  38.6180220
  14.3471520  35.6042850  45.3187810  14.9843740  36.2176990  45.6847000
  14.4946410  35.6403510  44.3737040  16.8896070  37.4956640  32.1010950
  17.8145380  37.3637820  31.8929240  16.8671860  37.5749460  33.0547400
  16.9634560  38.2667300  34.7267660  16.1686060  38.2012420  35.2560570
  17.1677840  39.2017940  34.7153010  13.9052980  52.3058850  38.7206050
  14.5012050  51.9843420  38.0440470  14.1631130  51.8330670  39.5119320
   1.8115550  48.7376760  48.8696680   1.7685180  48.3669670  49.7511140
   1.9426560  49.6754330  49.0098500   5.5121580  50.2936350  44.4706400
   5.2712940  50.5610910  43.5836920   6.4524220  50.4642080  44.5257260
   7.7176000  36.7569040  48.2262910   7.6564890  37.3490870  48.9758320
   8.6576380  36.6495000  48.0813170  10.3550560  36.4139100  47.8655200
  10.9690970  36.7318390  47.2036280  10.9000120  35.9287690  48.4851060
  16.7725740  52.3130730  45.2717040  16.2784020  52.7099600  44.5544170
  16.1639030  51.6879940  45.6654320  11.0958600  34.9771240  44.1924490
  10.2218440  35.3106350  43.9897420  10.9869350  34.5044420  45.0176360
  12.0030580  37.1842110  45.5766210  11.6743940  36.3693870  45.1967940
  12.9512880  37.1411920  45.4531900  14.4565190  52.9554150  42.5503780
  13.9968160  53.7069960  42.1761800  13.8277650  52.2360620  42.4918580
   4.8860910  51.2642390  41.7251910   5.4025930  50.6529750  41.2000170
   5.5358290  51.7671170  42.2162920   7.6256410  52.1550880  42.5520890
   7.9134220  51.9005180  41.6753900   8.1379630  51.6028240  43.1426460
   8.8433420  35.8941080  43.1317400   8.0605210  36.3686580  43.4114160
   8.5496350  34.9895910  43.0230580  13.3954490  36.5964180  41.1766490
  13.8362580  36.5409280  40.3288090  13.1262080  37.5122190  41.2476670
  15.2593060  36.2279420  39.1875310  15.1981460  35.2840640  39.0406330
  16.0385090  36.3359510  39.7328770   6.7287640  38.3127830  38.6433430
   5.9162150  37.9384720  38.3029310   7.2329280  37.5572910  38.9454620
  11.2312620  34.9770280  39.8816500  11.8341990  35.5490490  40.3565020
  10.4905610  35.5409720  39.6590400  14.3747220  35.3791840  35.1556780
  14.5697850  36.2775290  35.4224210  13.5877090  35.1478920  35.6489730
   2.5598980  36.7252610  34.1933090   3.0891740  35.9382410  34.0641040
   3.1927300  37.4043800  34.4268620   4.7536820  36.4627750  37.2478480
   4.1239560  35.7615060  37.4148610   4.2141960  37.2231880  37.0311640
   7.6928770  53.0766980  49.9189090   8.6196080  52.8411250  49.9625050
   7.6779200  53.9038980  49.4375120  15.9273830  52.6192550  36.9163340
  16.1026020  51.9330290  36.2724260  15.2295400  53.1439600  36.5240010
   4.8792380  35.7411730  49.6830970   4.5976650  36.2445330  48.9191790
   5.2612080  34.9433480  49.3173100   3.7701480  53.0087390  34.4698650
   4.5020300  52.7246670  33.9222540   4.0295150  52.7700670  35.3598030
   2.9316270  49.1252120  34.4744980   2.3025150  49.5937220  35.0230810
   3.0464100  48.2801340  34.9091170  11.4807840  35.1565310  50.2611440
  11.3673290  35.4759920  51.1562960  12.2977580  35.5577820  49.9648720
  14.2606330  52.3036840  49.7430130  15.0531650  51.8086070  49.5356090
  14.5539480  52.9826980  50.3505740  10.3865990  43.1757780  20.6246180
  10.3060040  42.2612390  20.3537890   9.9730410  43.6724850  19.9185890
   8.5184030  44.9536800  22.5055450   7.7426130  44.4737240  22.7954020
   9.1696960  44.2742450  22.3311610  12.5391460  49.3596990  21.2854580
  12.0772990  48.5884230  21.6141750  13.3517010  49.3863060  21.7907030
   2.5151120  49.2996700  23.5789230   2.8179160  48.4094440  23.3999450
   3.2594710  49.8566920  23.3511480   8.7654770  51.6455000  20.9058570
   8.1466210  52.1012500  20.3353010   9.6206550  51.8006460  20.5048270
   7.9593020  47.6293990  22.5125610   7.8901300  46.6883930  22.3514740
   8.7212880  47.7195400  23.0848180   8.9898190  40.4364370  22.7394540
   9.3663010  39.5636250  22.6268210   8.8917700  40.7723070  21.8484980
   3.1203200  38.8090000  18.2011980   3.2269950  39.7093730  18.5080740
   2.2095560  38.7607970  17.9106630  12.7722310  37.9314810  19.6722880
  13.5931930  37.4411380  19.7148360  12.8056390  38.5212470  20.4254720
   4.9610930  41.7776370  22.5337160   5.4689150  42.2757340  23.1742180
   5.4924170  41.0011570  22.3576520  17.0621860  39.9481560  26.2366510
  16.3574030  40.3363270  25.7181620  17.3279780  40.6431850  26.8387440
   3.2447030  36.4174930  26.8000580   3.2465470  36.9347320  25.9946480
   2.4151340  35.9405110  26.7770510   9.6318120  46.5294240  18.2990480
   9.0135390  46.9943690  17.7353200  10.1441370  47.2221720  18.7159990
   4.4949880  46.0570110  24.9774080   4.1619260  46.6839030  25.6195150
   4.6716560  46.5831990  24.1975750  13.0083790  39.8715190  22.4450420
  12.3039360  40.1600080  23.0253530  13.3695950  40.6815300  22.0849980
   2.9262360  38.1284890  24.8071030   3.2679170  38.9726940  24.5124900
   1.9878170  38.2768630  24.9236370   3.7068980  48.0250910  26.7923260
   4.3242980  48.7001990  26.5107710   2.8462100  48.4338890  26.7010760
  14.6246570  49.4890320  24.7077900  13.9410090  50.1589430  24.6994570
  15.1640860  49.6870970  23.9422760  16.0770710  39.3169980  22.8359630
  15.1295620  39.3508960  22.9675060  16.4020700  40.1308930  23.2208990
   6.6090250  35.6167160  21.1315620   6.9165230  35.0614050  20.4151120
   5.6790950  35.7511620  20.9488610  12.1605310  51.3334450  23.4223080
  12.1732470  50.9296740  22.5545340  11.6080530  52.1081740  23.3184510
  13.4550730  48.0550670  18.5113250  13.3447060  47.1125000  18.6362670
  13.4518980  48.4166310  19.3976010  11.5590750  46.2364290  24.7505690
  11.9759540  46.0224400  23.9159150  12.2830570  46.4937080  25.3214310
   8.9971010  43.6815990  17.8675740   8.0700290  43.6153370  18.0964210
   9.1495830  44.6196120  17.7530980   8.9840090  39.9532990  14.8642900
   8.0443760  40.1146950  14.9495360   9.3023350  40.6718670  14.3178890
  15.5052850  44.6351510  24.8421930  14.6771480  44.7044600  24.3672060
  16.1003330  45.2205820  24.3737760  13.0268300  45.2436290  18.3710990
  12.4080720  44.9055840  17.7237290  13.0092750  44.5996050  19.0790180
  12.4694860  41.4220830  25.7876800  12.0566040  42.2474540  26.0416790
  11.7370810  40.8365870  25.5953160   4.6027650  44.2080730  20.6495470
   4.1984650  43.4957980  20.1541370   4.6890770  43.8633970  21.5383510
   5.0709350  47.8948290  22.8134680   4.7737640  47.2893760  22.1342460
   6.0209170  47.9325600  22.7024040   3.3156270  40.9823940  24.4294510
   3.8670860  41.0919280  23.6547760   3.8299780  41.3561540  25.1449740
  13.1594960  51.4680160  26.4757780  12.6825520  52.2752350  26.2830390
  12.4756750  50.8158490  26.6283990   4.1627780  47.6329980  29.4642480
   3.2656310  47.8569950  29.7115880   4.1880650  47.7564920  28.5153880
  11.2033000  44.4823100  15.3783740  11.6426280  43.6445530  15.2321560
  11.9161420  45.1152500  15.4647880   2.9899000  44.5043300  28.0399850
   2.8506770  45.3766100  28.4087250   2.1080360  44.1616110  27.8947790
   9.3128380  49.4219170  19.3464980   9.7524290  50.1643500  18.9320370
   9.2515270  49.6645740  20.2703940   4.7879350  50.4465000  30.2485000
   4.7594780  50.8507950  29.3813430   4.6244320  49.5175360  30.0856600
  14.7850140  35.7365910  13.6924780  14.4722800  35.8292740  14.5923850
  15.5462610  36.3146940  13.6422210  16.7394170  51.2292100  31.5449170
  17.2153890  51.7074990  32.2238250  17.3601330  51.1609590  30.8194670
  16.1427420  48.4204950  28.7049180  16.2690480  48.1816830  27.7866360
  16.1848800  47.5889490  29.1771260  10.0044160  52.1232950  27.2743990
  10.5188830  52.0340960  28.0766420   9.1613240  52.4692650  27.5671900
  11.9798560  52.4088290  16.7027990  11.8199700  52.1191230  17.6009820
  11.8145270  51.6328420  16.1673220   4.4586940  52.1886820  18.4799610
   4.2829420  51.2722360  18.2667410   3.6042680  52.5474110  18.7197410
  11.6824690  49.9175850  15.2625990  10.9889850  49.9153140  14.6028270
  12.4247550  49.4935170  14.8320160  11.2474620  51.5438560  19.3374480
  11.7031570  50.7627940  19.6513100  11.5867140  52.2545380  19.8815660
  15.9951430  40.4737410  29.6698920  15.3795700  40.9817080  29.1414380
  15.6747850  39.5735740  29.6124860   3.7695940  36.4460780  21.5325790
   3.3264090  37.2270320  21.2010310   4.3280930  36.7690670  22.2396730
   8.0565750  39.3129300  27.1361110   7.5945120  39.5212320  27.9481050
   7.6543860  38.4988650  26.8331780  13.0570260  40.5338250  28.2657770
  12.2063850  40.2344000  28.5866840  12.8972050  40.7780260  27.3541590
  10.1519970  42.0340000  30.3656560  10.4773380  41.2003750  30.0258790
  10.9400300  42.5568520  30.5134890   6.8854760  36.0671480  16.4131620
   6.2608940  36.0631350  17.1384930   6.7984880  35.2002440  16.0167590
   5.8071840  36.9908110  23.3915390   6.1044170  37.8970940  23.3107410
   6.3557400  36.5026890  22.7774960   3.5610160  41.5694350  19.2607040
   3.3351080  41.3531520  20.1653660   2.7802690  42.0022810  18.9153010
  10.7907920  41.5757720  17.8597690  10.1916810  42.2993520  17.6761310
  11.3387530  41.5134500  17.0774140   6.0009370  42.4679930  29.9267310
   5.9052970  41.5274660  29.7767710   6.8441350  42.6895000  29.5315380
   9.3972790  40.2121260  19.8900970   9.7902360  40.5293460  19.0769660
   9.7589640  39.3333140  20.0045490   7.7064960  38.9628570  31.1497830
   7.0163280  38.7700770  31.7843920   8.4497260  39.2463210  31.6822130
   9.9827930  42.8027010  23.9851750   9.2509050  43.3113820  24.3341850
   9.5852270  41.9856990  23.6840530   6.4205320  39.4781210  22.3904240
   6.4241380  39.0371160  21.5408780   7.3156440  39.7998540  22.4976060
   6.4825470  40.4793290  15.3811000   6.6038290  40.4379770  16.3296820
   6.0973980  41.3417440  15.2257730  10.4453840  38.2560690  23.3974690
  10.4626580  38.7069340  24.2416540  10.1969420  37.3566330  23.6108130
   5.4946970  42.7894430  14.7794300   4.9263870  42.3412680  14.1530210
   6.2035970  43.1487210  14.2459450  13.8724590  35.6692870  29.2361070
  14.1970360  34.9382530  29.7619050  13.9081100  35.3506510  28.3342060
   6.7213290  43.5382990  24.1369650   7.0883420  43.0641560  24.8830990
   6.5318350  44.4124560  24.4777990   4.5112660  42.5791630  26.4553860
   4.2069730  43.4583610  26.6804220   5.4659120  42.6391420  26.4911300
   3.0394450  46.7852620  17.0520710   2.2656710  46.2450240  16.8919430
   3.7689080  46.2659230  16.7138470  13.7982430  45.7817980  22.8447100
  14.5181550  46.2773270  22.4543210  13.5964250  45.1035870  22.2000970
   9.2592370  37.1755940  16.9876490   8.4456980  36.6769110  16.9121800
   9.0654320  38.0154190  16.5712840   9.1801230  45.8527040  28.7316100
   9.1138540  44.9322710  28.4773690   8.5506370  45.9502480  29.4460740
  11.9740760  41.5475590  15.2838650  12.8620380  41.8592820  15.1089990
  11.9445850  40.6747840  14.8919230   3.0831850  46.4533000  20.6899520
   3.6010520  45.6501260  20.6356410   2.6315870  46.3912140  21.5316350
   7.9701350  47.7199280  15.9626820   8.3117050  48.4641510  15.4670140
   7.1414060  48.0330400  16.3251650   3.7689510  43.8778610  30.4864770
   3.4689650  44.0235790  29.5892590   4.5400750  43.3183900  30.3938160
   9.1117960  48.6747610  28.4819900   9.1262500  47.7428570  28.2638810
   8.4043060  48.7607370  29.1209670  14.2455030  42.8587430  14.7518510
  14.1618750  43.2901650  13.9014950  14.9649220  43.3185780  15.1845330
  15.3229170  45.3154950  27.8288480  14.5977360  45.9083730  27.6317870
  15.8504630  45.3078490  27.0301850  15.2742280  49.7129690  17.4800640
  14.6318440  49.0585310  17.7544360  14.8872940  50.1184780  16.7041310
  10.8528760  47.0415120  21.3272330  11.2052580  46.4443250  20.6673700
   9.9691090  46.7159350  21.4980580   6.9392040  47.8012810  18.7342740
   7.6263170  48.3482020  19.1150330   6.1524460  48.3453540  18.7692350
   6.2419250  44.8058840  18.3468100   6.6982030  45.6164090  18.5728290
   5.8907460  44.4881980  19.1786590   8.5451860  50.3165180  25.5760400
   9.1894080  50.5224560  26.2533820   8.9081300  49.5553580  25.1231250
   9.8183940  48.3197530  24.2937850  10.4606170  47.6190690  24.4070020
  10.3433290  49.0995970  24.1134740  13.6639660  48.6046150  14.0176990
  13.4377240  47.8876590  14.6101630  13.2735860  48.3558590  13.1798740
  11.5921560  49.1192430  27.4973910  11.9277800  49.7059120  28.1751830
  10.6721900  48.9885140  27.7271700  13.2455910  46.5218090  15.6791150
  12.9577610  46.9830780  16.4669030  14.0408080  46.0615860  15.9475370
   7.4210140  49.1683760  30.6661970   7.1007010  48.4493000  31.2107660
   6.7468500  49.8438830  30.7398030   5.4624310  50.0144210  15.6095120
   5.4534410  50.7473900  14.9939630   4.5422670  49.7675790  15.7022080
  10.6363740  39.4009920  26.0298770  11.0044560  38.5805130  26.3578340
   9.7761940  39.4611810  26.4454420  14.0025770  38.3566860  16.8386330
  13.3738930  38.4612530  16.1244560  13.5077690  38.5763640  17.6280210
   8.4483910  50.0772450  14.2720310   8.5495890  49.8736440  13.3422290
   7.5485650  49.8230730  14.4768090   5.9709800  40.6352810  18.2544210
   5.2625950  41.1039150  18.6957820   6.2554280  39.9774820  18.8889400
   7.5965730  42.0549510  26.2536740   8.0950980  42.5295330  26.9188590
   7.7388680  41.1313030  26.4606770  10.0025230  37.3603470  19.6940000
   9.8793010  37.3789600  18.7449510  10.9509790  37.4082410  19.8138400
   7.0902020  52.5958770  18.9667980   7.3443520  52.5580160  18.0447350
   6.1414500  52.4692100  18.9596230   4.1744820  38.9437890  15.6294920
   5.0235350  39.3808040  15.5635110   3.8076090  39.2558150  16.4566980
  14.8032590  38.2717470  27.0965130  14.3006190  39.0122870  27.4358940
  15.6189250  38.6601470  26.7801920  13.0954600  43.5150650  20.5426490
  12.1544740  43.5300880  20.7174180  13.4098670  42.7286610  20.9886790
   3.0736240  45.1970250  14.1030450   3.8399510  45.0851610  14.6655880
   3.1510930  44.5008220  13.4507220   1.7683000  42.6295320  14.7863340
   1.8486590  41.6822830  14.8980740   2.6602750  42.9602200  14.8924000
  15.0980180  50.6859500  22.2180750  15.2227600  51.5090670  22.6904560
  15.9645740  50.4750230  21.8704900   2.5697710  52.7790710  21.8897880
   3.3060190  52.2306170  22.1606450   2.9538630  53.6446720  21.7503870
   5.6800020  51.9521020  13.7123450   6.4728630  52.2409850  13.2605240
   5.1604370  51.5213190  13.0335930  10.4120620  48.0716650  31.0258870
   9.8058780  48.0948250  30.2854620  10.1074730  47.3399690  31.5626120
  11.8420990  51.7996940  29.6368280  12.7942740  51.7154960  29.5868520
  11.6949210  52.4638650  30.3102070  14.7330190  51.1791150  15.1360190
  14.4471700  50.7656290  14.3214370  14.5349740  52.1078860  15.0160710
   6.1977420  47.1724430  13.5765800   6.0928060  46.5576780  14.3027180
   6.0301640  46.6490320  12.7928810   6.3491740  45.8581230  29.5555030
   5.5837410  46.4266230  29.4709700   6.5307700  45.5657440  28.6623260
   9.4380150  46.2344460  14.1807790   8.8890250  46.6813760  14.8250530
  10.0599410  45.7293710  14.7045460  13.4915090  47.5886560  30.1130050
  14.2324560  47.9262320  29.6097510  12.7287770  47.7578620  29.5599820
   5.1055270  45.1935380  16.0773090   5.5271690  45.0275250  16.9204480
   5.2306110  44.3835610  15.5828230   3.2682690  41.1731930  28.8844070
   2.7379150  40.6822880  28.2567410   3.9370760  41.6016130  28.3502000
   7.6182910  44.2172990  13.3250190   8.1388570  43.5022010  12.9591340
   8.2651310  44.8558860  13.6250700  12.1660750  45.6401390  28.6485260
  12.5801770  45.7946470  29.4975680  11.2311750  45.7656610  28.8111040
  12.6382920  42.9797550  30.6524410  13.2203690  42.2249870  30.5644890
  12.8144690  43.5104990  29.8755890   3.7554990  38.1394300  28.9641360
   3.6611860  37.5215050  28.2392230   3.1752380  38.8660590  28.7371270
   6.5216430  36.6967540  25.9968750   6.0733730  36.7191800  25.1514300
   5.8881630  36.2986560  26.5939050   6.9275980  45.5921870  26.6181190
   7.3464090  46.4354600  26.4457430   6.0084610  45.7293910  26.3887970
   9.2639880  43.3238050  28.0019030   9.3836090  42.7279190  28.7413870
  10.1233880  43.3607740  27.5820330  11.6027780  43.8775240  26.5781540
  11.0763000  44.4017860  25.9746680  11.9459120  44.5102630  27.2091270
   4.0014170  41.2668610  13.0231250   3.8003230  40.4035970  13.3844590
   3.8306220  41.1801970  12.0852850   4.7783400  51.8974880  27.7338920
   4.2404490  52.6220940  27.4147620   5.0317360  51.4205220  26.9436260
   6.0308650  39.8659400  29.2594850   6.6208340  39.5575250  29.9472670
   5.2128890  39.3939150  29.4154750  10.8502080  39.4825210  29.4927870
  10.1617600  38.8206750  29.4277860  11.5708100  39.0363480  29.9376330
  11.4802480  36.0776840  15.5518130  11.7604770  35.2344740  15.9077550
  10.7068210  36.3099950  16.0656880   2.7996970  38.3669230  13.0109130
   3.1022870  38.3736660  12.1028280   3.5391560  38.0167090  13.5076790
   7.6345610  53.1326090  27.9925570   7.5604310  54.0361230  28.2997940
   6.7324450  52.8137990  27.9647640   6.0181900  37.3103850  13.9965330
   5.6703900  36.6327840  13.4167780   6.2194670  36.8493360  14.8108720
   8.1830940  52.2984600  15.6151930   9.0781730  52.6369570  15.6370690
   8.2148570  51.5764010  14.9876210   1.8227100  47.6711650  13.8438930
   2.2601970  48.2141320  14.4996510   2.3074830  46.8458600  13.8535270
   3.6334820  48.7909690  18.9561160   3.3330360  48.6674660  19.8565070
   3.5272310  47.9318280  18.5476890  15.1625290  50.8288270  28.3218130
  14.5627280  50.8880830  27.5782050  15.2919190  49.8893250  28.4514980
  16.4026740  48.5706090  13.6587840  15.5719700  48.6382740  14.1295070
  16.5798570  49.4610210  13.3554700  15.8583200  45.3153570  16.1622040
  16.6202110  45.8850220  16.2681730  15.8737570  44.7480770  16.9330350
  16.8643170  46.1703670  21.0063970  17.2352000  45.3870990  20.5999940
  17.5045100  46.8592770  20.8281270  13.8476930  47.5540250  26.4194290
  13.0336770  47.9837410  26.6820080  14.2551130  48.1658660  25.8063340
  15.9102370  45.6087940  13.3194560  16.1851210  46.5166820  13.1913780
  15.7213110  45.5450470  14.2556550  12.3077980  38.6332790  14.6148190
  12.7262860  38.4463770  13.7744850  12.0014040  37.7811840  14.9251120
  15.8067710  43.5456930  18.3123990  15.4311310  42.7784860  17.8805280
  15.0770830  43.9279630  18.7998920  15.1967330  42.6928450  27.9463510
  14.9653420  42.4641200  27.0461460  15.4571880  43.6128000  27.9008400
  13.6355400  37.9184880  30.7243210  14.5125580  37.9268280  31.1077210
  13.6476240  37.1815720  30.1135560  15.0818670  41.7714420  21.6131230
  15.6056150  41.2777070  20.9821400  15.6678090  41.9064780  22.3578800
  15.2608390  41.8554290  25.1350780  14.3111100  41.8217830  25.2495770
  15.4421400  42.7654400  24.9000550  14.5718640  41.0287770  17.5523640
  15.0677760  40.7958640  18.3372520  14.3734710  40.1899610  17.1361280
  16.0005800  39.6648720  20.0861320  15.8905080  39.5104760  21.0243590
  16.7613390  39.1369660  19.8436730  14.3471520  35.6042850  26.5444320
  14.9843740  36.2176990  26.9103510  14.4946410  35.6403510  25.5993550
  16.8896070  37.4956640  13.3267460  17.8145380  37.3637820  13.1185750
  16.8671860  37.5749460  14.2803910  16.9634560  38.2667300  15.9524170
  16.1686060  38.2012420  16.4817080  17.1677840  39.2017940  15.9409520
  13.9052980  52.3058850  19.9462560  14.5012050  51.9843420  19.2696980
  14.1631130  51.8330670  20.7375830   1.8115550  48.7376760  30.0953190
   1.7685180  48.3669670  30.9767650   1.9426560  49.6754330  30.2355010
   5.5121580  50.2936350  25.6962910   5.2712940  50.5610910  24.8093430
   6.4524220  50.4642080  25.7513770   7.7176000  36.7569040  29.4519420
   7.6564890  37.3490870  30.2014830   8.6576380  36.6495000  29.3069680
  10.3550560  36.4139100  29.0911710  10.9690970  36.7318390  28.4292790
  10.9000120  35.9287690  29.7107570  16.7725740  52.3130730  26.4973550
  16.2784020  52.7099600  25.7800680  16.1639030  51.6879940  26.8910830
  11.0958600  34.9771240  25.4181000  10.2218440  35.3106350  25.2153930
  10.9869350  34.5044420  26.2432870  12.0030580  37.1842110  26.8022720
  11.6743940  36.3693870  26.4224450  12.9512880  37.1411920  26.6788410
  14.4565190  52.9554150  23.7760290  13.9968160  53.7069960  23.4018310
  13.8277650  52.2360620  23.7175090   4.8860910  51.2642390  22.9508420
   5.4025930  50.6529750  22.4256680   5.5358290  51.7671170  23.4419430
   7.6256410  52.1550880  23.7777400   7.9134220  51.9005180  22.9010410
   8.1379630  51.6028240  24.3682970   8.8433420  35.8941080  24.3573910
   8.0605210  36.3686580  24.6370670   8.5496350  34.9895910  24.2487090
  13.3954490  36.5964180  22.4023000  13.8362580  36.5409280  21.5544600
  13.1262080  37.5122190  22.4733180  15.2593060  36.2279420  20.4131820
  15.1981460  35.2840640  20.2662840  16.0385090  36.3359510  20.9585280
   6.7287640  38.3127830  19.8689940   5.9162150  37.9384720  19.5285820
   7.2329280  37.5572910  20.1711130  11.2312620  34.9770280  21.1073010
  11.8341990  35.5490490  21.5821530  10.4905610  35.5409720  20.8846910
  14.3747220  35.3791840  16.3813290  14.5697850  36.2775290  16.6480720
  13.5877090  35.1478920  16.8746240   2.5598980  36.7252610  15.4189600
   3.0891740  35.9382410  15.2897550   3.1927300  37.4043800  15.6525130
   4.7536820  36.4627750  18.4734990   4.1239560  35.7615060  18.6405120
   4.2141960  37.2231880  18.2568150   7.6928770  53.0766980  31.1445600
   8.6196080  52.8411250  31.1881560   7.6779200  53.9038980  30.6631630
  15.9273830  52.6192550  18.1419850  16.1026020  51.9330290  17.4980770
  15.2295400  53.1439600  17.7496520   4.8792380  35.7411730  30.9087480
   4.5976650  36.2445330  30.1448300   5.2612080  34.9433480  30.5429610
   3.7701480  53.0087390  15.6955160   4.5020300  52.7246670  15.1479050
   4.0295150  52.7700670  16.5854540   2.9316270  49.1252120  15.7001490
   2.3025150  49.5937220  16.2487320   3.0464100  48.2801340  16.1347680
  11.4807840  35.1565310  31.4867950  11.3673290  35.4759920  32.3819470
  12.2977580  35.5577820  31.1905230  14.2606330  52.3036840  30.9686640
  15.0531650  51.8086070  30.7612600  14.5539480  52.9826980  31.5762250
   8.5184030  44.9536800   3.7311960   7.7426130  44.4737240   4.0210530
   9.1696960  44.2742450   3.5568120  12.5391460  49.3596990   2.5111090
  12.0772990  48.5884230   2.8398260  13.3517010  49.3863060   3.0163540
   2.5151120  49.2996700   4.8045740   2.8179160  48.4094440   4.6255960
   3.2594710  49.8566920   4.5767990   7.9593020  47.6293990   3.7382120
   7.8901300  46.6883930   3.5771250   8.7212880  47.7195400   4.3104690
   8.9898190  40.4364370   3.9651050   9.3663010  39.5636250   3.8524720
   8.8917700  40.7723070   3.0741490   4.9610930  41.7776370   3.7593670
   5.4689150  42.2757340   4.3998690   5.4924170  41.0011570   3.5833030
  17.0621860  39.9481560   7.4623020  16.3574030  40.3363270   6.9438130
  17.3279780  40.6431850   8.0643950   3.2447030  36.4174930   8.0257090
   3.2465470  36.9347320   7.2202990   2.4151340  35.9405110   8.0027020
   4.4949880  46.0570110   6.2030590   4.1619260  46.6839030   6.8451660
   4.6716560  46.5831990   5.4232260  13.0083790  39.8715190   3.6706930
  12.3039360  40.1600080   4.2510040  13.3695950  40.6815300   3.3106490
   2.9262360  38.1284890   6.0327540   3.2679170  38.9726940   5.7381410
   1.9878170  38.2768630   6.1492880   3.7068980  48.0250910   8.0179770
   4.3242980  48.7001990   7.7364220   2.8462100  48.4338890   7.9267270
  14.6246570  49.4890320   5.9334410  13.9410090  50.1589430   5.9251080
  15.1640860  49.6870970   5.1679270  16.0770710  39.3169980   4.0616140
  15.1295620  39.3508960   4.1931570  16.4020700  40.1308930   4.4465500
  12.1605310  51.3334450   4.6479590  12.1732470  50.9296740   3.7801850
  11.6080530  52.1081740   4.5441020  11.5590750  46.2364290   5.9762200
  11.9759540  46.0224400   5.1415660  12.2830570  46.4937080   6.5470820
  15.5052850  44.6351510   6.0678440  14.6771480  44.7044600   5.5928570
  16.1003330  45.2205820   5.5994270  12.4694860  41.4220830   7.0133310
  12.0566040  42.2474540   7.2673300  11.7370810  40.8365870   6.8209670
   5.0709350  47.8948290   4.0391190   4.7737640  47.2893760   3.3598970
   6.0209170  47.9325600   3.9280550   3.3156270  40.9823940   5.6551020
   3.8670860  41.0919280   4.8804270   3.8299780  41.3561540   6.3706250
  13.1594960  51.4680160   7.7014290  12.6825520  52.2752350   7.5086900
  12.4756750  50.8158490   7.8540500   4.1627780  47.6329980  10.6898990
   3.2656310  47.8569950  10.9372390   4.1880650  47.7564920   9.7410390
   2.9899000  44.5043300   9.2656360   2.8506770  45.3766100   9.6343760
   2.1080360  44.1616110   9.1204300   4.7879350  50.4465000  11.4741510
   4.7594780  50.8507950  10.6069940   4.6244320  49.5175360  11.3113110
  16.7394170  51.2292100  12.7705680  17.2153890  51.7074990  13.4494760
  17.3601330  51.1609590  12.0451180  16.1427420  48.4204950   9.9305690
  16.2690480  48.1816830   9.0122870  16.1848800  47.5889490  10.4027770
  10.0044160  52.1232950   8.5000500  10.5188830  52.0340960   9.3022930
   9.1613240  52.4692650   8.7928410  15.9951430  40.4737410  10.8955430
  15.3795700  40.9817080  10.3670890  15.6747850  39.5735740  10.8381370
   3.7695940  36.4460780   2.7582300   3.3264090  37.2270320   2.4266820
   4.3280930  36.7690670   3.4653240   8.0565750  39.3129300   8.3617620
   7.5945120  39.5212320   9.1737560   7.6543860  38.4988650   8.0588290
  13.0570260  40.5338250   9.4914280  12.2063850  40.2344000   9.8123350
  12.8972050  40.7780260   8.5798100  10.1519970  42.0340000  11.5913070
  10.4773380  41.2003750  11.2515300  10.9400300  42.5568520  11.7391400
   5.8071840  36.9908110   4.6171900   6.1044170  37.8970940   4.5363920
   6.3557400  36.5026890   4.0031470   6.0009370  42.4679930  11.1523820
   5.9052970  41.5274660  11.0024220   6.8441350  42.6895000  10.7571890
   7.7064960  38.9628570  12.3754340   7.0163280  38.7700770  13.0100430
   8.4497260  39.2463210  12.9078640   9.9827930  42.8027010   5.2108260
   9.2509050  43.3113820   5.5598360   9.5852270  41.9856990   4.9097040
   6.4205320  39.4781210   3.6160750   6.4241380  39.0371160   2.7665290
   7.3156440  39.7998540   3.7232570  10.4453840  38.2560690   4.6231200
  10.4626580  38.7069340   5.4673050  10.1969420  37.3566330   4.8364640
  13.8724590  35.6692870  10.4617580  14.1970360  34.9382530  10.9875560
  13.9081100  35.3506510   9.5598570   6.7213290  43.5382990   5.3626160
   7.0883420  43.0641560   6.1087500   6.5318350  44.4124560   5.7034500
   4.5112660  42.5791630   7.6810370   4.2069730  43.4583610   7.9060730
   5.4659120  42.6391420   7.7167810  13.7982430  45.7817980   4.0703610
  14.5181550  46.2773270   3.6799720  13.5964250  45.1035870   3.4257480
   9.1801230  45.8527040   9.9572610   9.1138540  44.9322710   9.7030200
   8.5506370  45.9502480  10.6717250   3.0831850  46.4533000   1.9156030
   3.6010520  45.6501260   1.8612920   2.6315870  46.3912140   2.7572860
   3.7689510  43.8778610  11.7121280   3.4689650  44.0235790  10.8149100
   4.5400750  43.3183900  11.6194670   9.1117960  48.6747610   9.7076410
   9.1262500  47.7428570   9.4895320   8.4043060  48.7607370  10.3466180
  15.3229170  45.3154950   9.0544990  14.5977360  45.9083730   8.8574380
  15.8504630  45.3078490   8.2558360  10.8528760  47.0415120   2.5528840
  11.2052580  46.4443250   1.8930210   9.9691090  46.7159350   2.7237090
   8.5451860  50.3165180   6.8016910   9.1894080  50.5224560   7.4790330
   8.9081300  49.5553580   6.3487760   9.8183940  48.3197530   5.5194360
  10.4606170  47.6190690   5.6326530  10.3433290  49.0995970   5.3391250
  11.5921560  49.1192430   8.7230420  11.9277800  49.7059120   9.4008340
  10.6721900  48.9885140   8.9528210   7.4210140  49.1683760  11.8918480
   7.1007010  48.4493000  12.4364170   6.7468500  49.8438830  11.9654540
  10.6363740  39.4009920   7.2555280  11.0044560  38.5805130   7.5834850
   9.7761940  39.4611810   7.6710930   7.5965730  42.0549510   7.4793250
   8.0950980  42.5295330   8.1445100   7.7388680  41.1313030   7.6863280
  14.8032590  38.2717470   8.3221640  14.3006190  39.0122870   8.6615450
  15.6189250  38.6601470   8.0058430  13.0954600  43.5150650   1.7683000
  12.1544740  43.5300880   1.9430690  13.4098670  42.7286610   2.2143300
  15.0980180  50.6859500   3.4437260  15.2227600  51.5090670   3.9161070
  15.9645740  50.4750230   3.0961410   2.5697710  52.7790710   3.1154390
   3.3060190  52.2306170   3.3862960   2.9538630  53.6446720   2.9760380
  10.4120620  48.0716650  12.2515380   9.8058780  48.0948250  11.5111130
  10.1074730  47.3399690  12.7882630  11.8420990  51.7996940  10.8624790
  12.7942740  51.7154960  10.8125030  11.6949210  52.4638650  11.5358580
   6.3491740  45.8581230  10.7811540   5.5837410  46.4266230  10.6966210
   6.5307700  45.5657440   9.8879770  13.4915090  47.5886560  11.3386560
  14.2324560  47.9262320  10.8354020  12.7287770  47.7578620  10.7856330
   3.2682690  41.1731930  10.1100580   2.7379150  40.6822880   9.4823920
   3.9370760  41.6016130   9.5758510  12.1660750  45.6401390   9.8741770
  12.5801770  45.7946470  10.7232190  11.2311750  45.7656610  10.0367550
  12.6382920  42.9797550  11.8780920  13.2203690  42.2249870  11.7901400
  12.8144690  43.5104990  11.1012400   3.7554990  38.1394300  10.1897870
   3.6611860  37.5215050   9.4648740   3.1752380  38.8660590   9.9627780
   6.5216430  36.6967540   7.2225260   6.0733730  36.7191800   6.3770810
   5.8881630  36.2986560   7.8195560   6.9275980  45.5921870   7.8437700
   7.3464090  46.4354600   7.6713940   6.0084610  45.7293910   7.6144480
   9.2639880  43.3238050   9.2275540   9.3836090  42.7279190   9.9670380
  10.1233880  43.3607740   8.8076840  11.6027780  43.8775240   7.8038050
  11.0763000  44.4017860   7.2003190  11.9459120  44.5102630   8.4347780
   4.7783400  51.8974880   8.9595430   4.2404490  52.6220940   8.6404130
   5.0317360  51.4205220   8.1692770   6.0308650  39.8659400  10.4851360
   6.6208340  39.5575250  11.1729180   5.2128890  39.3939150  10.6411260
  10.8502080  39.4825210  10.7184380  10.1617600  38.8206750  10.6534370
  11.5708100  39.0363480  11.1632840   7.6345610  53.1326090   9.2182080
   7.5604310  54.0361230   9.5254450   6.7324450  52.8137990   9.1904150
  15.1625290  50.8288270   9.5474640  14.5627280  50.8880830   8.8038560
  15.2919190  49.8893250   9.6771490  16.8643170  46.1703670   2.2320480
  17.2352000  45.3870990   1.8256450  17.5045100  46.8592770   2.0537780
  13.8476930  47.5540250   7.6450800  13.0336770  47.9837410   7.9076590
  14.2551130  48.1658660   7.0319850  15.1967330  42.6928450   9.1720020
  14.9653420  42.4641200   8.2717970  15.4571880  43.6128000   9.1264910
  13.6355400  37.9184880  11.9499720  14.5125580  37.9268280  12.3333720
  13.6476240  37.1815720  11.3392070  15.0818670  41.7714420   2.8387740
  15.6056150  41.2777070   2.2077910  15.6678090  41.9064780   3.5835310
  15.2608390  41.8554290   6.3607290  14.3111100  41.8217830   6.4752280
  15.4421400  42.7654400   6.1257060  14.3471520  35.6042850   7.7700830
  14.9843740  36.2176990   8.1360020  14.4946410  35.6403510   6.8250060
   1.8115550  48.7376760  11.3209700   1.7685180  48.3669670  12.2024160
   1.9426560  49.6754330  11.4611520   5.5121580  50.2936350   6.9219420
   5.2712940  50.5610910   6.0349940   6.4524220  50.4642080   6.9770280
   7.7176000  36.7569040  10.6775930   7.6564890  37.3490870  11.4271340
   8.6576380  36.6495000  10.5326190  10.3550560  36.4139100  10.3168220
  10.9690970  36.7318390   9.6549300  10.9000120  35.9287690  10.9364080
  16.7725740  52.3130730   7.7230060  16.2784020  52.7099600   7.0057190
  16.1639030  51.6879940   8.1167340  11.0958600  34.9771240   6.6437510
  10.2218440  35.3106350   6.4410440  10.9869350  34.5044420   7.4689380
  12.0030580  37.1842110   8.0279230  11.6743940  36.3693870   7.6480960
  12.9512880  37.1411920   7.9044920  14.4565190  52.9554150   5.0016800
  13.9968160  53.7069960   4.6274820  13.8277650  52.2360620   4.9431600
   4.8860910  51.2642390   4.1764930   5.4025930  50.6529750   3.6513190
   5.5358290  51.7671170   4.6675940   7.6256410  52.1550880   5.0033910
   7.9134220  51.9005180   4.1266920   8.1379630  51.6028240   5.5939480
   8.8433420  35.8941080   5.5830420   8.0605210  36.3686580   5.8627180
   8.5496350  34.9895910   5.4743600  13.3954490  36.5964180   3.6279510
  13.8362580  36.5409280   2.7801110  13.1262080  37.5122190   3.6989690
  11.2312620  34.9770280   2.3329520  11.8341990  35.5490490   2.8078040
  10.4905610  35.5409720   2.1103420   7.6928770  53.0766980  12.3702110
   8.6196080  52.8411250  12.4138070   7.6779200  53.9038980  11.8888140
   4.8792380  35.7411730  12.1343990   4.5976650  36.2445330  11.3704810
   5.2612080  34.9433480  11.7686120  11.4807840  35.1565310  12.7124460
  11.3673290  35.4759920  13.6075980  12.2977580  35.5577820  12.4161740
  14.2606330  52.3036840  12.1943150  15.0531650  51.8086070  11.9869110
  14.5539480  52.9826980  12.8018760  10.3865990  24.4014290  58.1733160
  10.3060040  23.4868900  57.9024870   9.9730410  24.8981360  57.4672870
   8.5184030  26.1793310  60.0542430   7.7426130  25.6993750  60.3441000
   9.1696960  25.4998960  59.8798590  12.5391460  30.5853500  58.8341560
  12.0772990  29.8140740  59.1628730  13.3517010  30.6119570  59.3394010
   2.5151120  30.5253210  61.1276210   2.8179160  29.6350950  60.9486430
   3.2594710  31.0823430  60.8998460   8.7654770  32.8711510  58.4545550
   8.1466210  33.3269010  57.8839990   9.6206550  33.0262970  58.0535250
   7.9593020  28.8550500  60.0612590   7.8901300  27.9140440  59.9001720
   8.7212880  28.9451910  60.6335160   8.9898190  21.6620880  60.2881520
   9.3663010  20.7892760  60.1755190   8.8917700  21.9979580  59.3971960
   3.1203200  20.0346510  55.7498960   3.2269950  20.9350240  56.0567720
   2.2095560  19.9864480  55.4593610  12.7722310  19.1571320  57.2209860
  13.5931930  18.6667890  57.2635340  12.8056390  19.7468980  57.9741700
   4.9610930  23.0032880  60.0824140   5.4689150  23.5013850  60.7229160
   5.4924170  22.2268080  59.9063500   9.6318120  27.7550750  55.8477460
   9.0135390  28.2200200  55.2840180  10.1441370  28.4478230  56.2646970
  13.0083790  21.0971700  59.9937400  12.3039360  21.3856590  60.5740510
  13.3695950  21.9071810  59.6336960  16.0770710  20.5426490  60.3846610
  15.1295620  20.5765470  60.5162040  16.4020700  21.3565440  60.7695970
   6.6090250  16.8423670  58.6802600   6.9165230  16.2870560  57.9638100
   5.6790950  16.9768130  58.4975590  12.1605310  32.5590960  60.9710060
  12.1732470  32.1553250  60.1032320  11.6080530  33.3338250  60.8671490
  13.4550730  29.2807180  56.0600230  13.3447060  28.3381510  56.1849650
  13.4518980  29.6422820  56.9462990   8.9971010  24.9072500  55.4162720
   8.0700290  24.8409880  55.6451190   9.1495830  25.8452630  55.3017960
   8.9840090  21.1789500  52.4129880   8.0443760  21.3403460  52.4982340
   9.3023350  21.8975180  51.8665870  13.0268300  26.4692800  55.9197970
  12.4080720  26.1312350  55.2724270  13.0092750  25.8252560  56.6277160
   4.6027650  25.4337240  58.1982450   4.1984650  24.7214490  57.7028350
   4.6890770  25.0890480  59.0870490   5.0709350  29.1204800  60.3621660
   4.7737640  28.5150270  59.6829440   6.0209170  29.1582110  60.2511020
  11.2033000  25.7079610  52.9270720  11.6426280  24.8702040  52.7808540
  11.9161420  26.3409010  53.0134860   9.3128380  30.6475680  56.8951960
   9.7524290  31.3900010  56.4807350   9.2515270  30.8902250  57.8190920
  14.7850140  16.9622420  51.2411760  14.4722800  17.0549250  52.1410830
  15.5462610  17.5403450  51.1909190  11.9798560  33.6344800  54.2514970
  11.8199700  33.3447740  55.1496800  11.8145270  32.8584930  53.7160200
   4.4586940  33.4143330  56.0286590   4.2829420  32.4978870  55.8154390
   3.6042680  33.7730620  56.2684390  11.6824690  31.1432360  52.8112970
  10.9889850  31.1409650  52.1515250  12.4247550  30.7191680  52.3807140
  11.2474620  32.7695070  56.8861460  11.7031570  31.9884450  57.2000080
  11.5867140  33.4801890  57.4302640   3.7695940  17.6717290  59.0812770
   3.3264090  18.4526830  58.7497290   4.3280930  17.9947180  59.7883710
   6.8854760  17.2927990  53.9618600   6.2608940  17.2887860  54.6871910
   6.7984880  16.4258950  53.5654570   5.8071840  18.2164620  60.9402370
   6.1044170  19.1227450  60.8594390   6.3557400  17.7283400  60.3261940
   3.5610160  22.7950860  56.8094020   3.3351080  22.5788030  57.7140640
   2.7802690  23.2279320  56.4639990  10.7907920  22.8014230  55.4084670
  10.1916810  23.5250030  55.2248290  11.3387530  22.7391010  54.6261120
   9.3972790  21.4377770  57.4387950   9.7902360  21.7549970  56.6256640
   9.7589640  20.5589650  57.5532470   6.4205320  20.7037720  59.9391220
   6.4241380  20.2627670  59.0895760   7.3156440  21.0255050  60.0463040
   6.4825470  21.7049800  52.9297980   6.6038290  21.6636280  53.8783800
   6.0973980  22.5673950  52.7744710   5.4946970  24.0150940  52.3281280
   4.9263870  23.5669190  51.7017190   6.2035970  24.3743720  51.7946430
   3.0394450  28.0109130  54.6007690   2.2656710  27.4706750  54.4406410
   3.7689080  27.4915740  54.2625450  13.7982430  27.0074490  60.3934080
  14.5181550  27.5029780  60.0030190  13.5964250  26.3292380  59.7487950
   9.2592370  18.4012450  54.5363470   8.4456980  17.9025620  54.4608780
   9.0654320  19.2410700  54.1199820  11.9740760  22.7732100  52.8325630
  12.8620380  23.0849330  52.6576970  11.9445850  21.9004350  52.4406210
   3.0831850  27.6789510  58.2386500   3.6010520  26.8757770  58.1843390
   2.6315870  27.6168650  59.0803330   7.9701350  28.9455790  53.5113800
   8.3117050  29.6898020  53.0157120   7.1414060  29.2586910  53.8738630
  14.2455030  24.0843940  52.3005490  14.1618750  24.5158160  51.4501930
  14.9649220  24.5442290  52.7332310  15.2742280  30.9386200  55.0287620
  14.6318440  30.2841820  55.3031340  14.8872940  31.3441290  54.2528290
  10.8528760  28.2671630  58.8759310  11.2052580  27.6699760  58.2160680
   9.9691090  27.9415860  59.0467560   6.9392040  29.0269320  56.2829720
   7.6263170  29.5738530  56.6637310   6.1524460  29.5710050  56.3179330
   6.2419250  26.0315350  55.8955080   6.6982030  26.8420600  56.1215270
   5.8907460  25.7138490  56.7273570  13.6639660  29.8302660  51.5663970
  13.4377240  29.1133100  52.1588610  13.2735860  29.5815100  50.7285720
  13.2455910  27.7474600  53.2278130  12.9577610  28.2087290  54.0156010
  14.0408080  27.2872370  53.4962350   5.4624310  31.2400720  53.1582100
   5.4534410  31.9730410  52.5426610   4.5422670  30.9932300  53.2509060
  14.0025770  19.5823370  54.3873310  13.3738930  19.6869040  53.6731540
  13.5077690  19.8020150  55.1767190   8.4483910  31.3028960  51.8207290
   8.5495890  31.0992950  50.8909270   7.5485650  31.0487240  52.0255070
   5.9709800  21.8609320  55.8031190   5.2625950  22.3295660  56.2444800
   6.2554280  21.2031330  56.4376380  10.0025230  18.5859980  57.2426980
   9.8793010  18.6046110  56.2936490  10.9509790  18.6338920  57.3625380
   7.0902020  33.8215280  56.5154960   7.3443520  33.7836670  55.5934330
   6.1414500  33.6948610  56.5083210   4.1744820  20.1694400  53.1781900
   5.0235350  20.6064550  53.1122090   3.8076090  20.4814660  54.0053960
  13.0954600  24.7407160  58.0913470  12.1544740  24.7557390  58.2661160
  13.4098670  23.9543120  58.5373770   3.0736240  26.4226760  51.6517430
   3.8399510  26.3108120  52.2142860   3.1510930  25.7264730  50.9994200
   1.7683000  23.8551830  52.3350320   1.8486590  22.9079340  52.4467720
   2.6602750  24.1858710  52.4410980  15.0980180  31.9116010  59.7667730
  15.2227600  32.7347180  60.2391540  15.9645740  31.7006740  59.4191880
   2.5697710  34.0047220  59.4384860   3.3060190  33.4562680  59.7093430
   2.9538630  34.8703230  59.2990850   5.6800020  33.1777530  51.2610430
   6.4728630  33.4666360  50.8092220   5.1604370  32.7469700  50.5822910
  14.7330190  32.4047660  52.6847170  14.4471700  31.9912800  51.8701350
  14.5349740  33.3335370  52.5647690   6.1977420  28.3980940  51.1252780
   6.0928060  27.7833290  51.8514160   6.0301640  27.8746830  50.3415790
   9.4380150  27.4600970  51.7294770   8.8890250  27.9070270  52.3737510
  10.0599410  26.9550220  52.2532440   5.1055270  26.4191890  53.6260070
   5.5271690  26.2531760  54.4691460   5.2306110  25.6092120  53.1315210
   7.6182910  25.4429500  50.8737170   8.1388570  24.7278520  50.5078320
   8.2651310  26.0815370  51.1737680   4.0014170  22.4925120  50.5718230
   3.8003230  21.6292480  50.9331570   3.8306220  22.4058480  49.6339830
  11.4802480  17.3033350  53.1005110  11.7604770  16.4601250  53.4564530
  10.7068210  17.5356460  53.6143860   2.7996970  19.5925740  50.5596110
   3.1022870  19.5993170  49.6515260   3.5391560  19.2423600  51.0563770
   6.0181900  18.5360360  51.5452310   5.6703900  17.8584350  50.9654760
   6.2194670  18.0749870  52.3595700   8.1830940  33.5241110  53.1638910
   9.0781730  33.8626080  53.1857670   8.2148570  32.8020520  52.5363190
   1.8227100  28.8968160  51.3925910   2.2601970  29.4397830  52.0483490
   2.3074830  28.0715110  51.4022250   3.6334820  30.0166200  56.5048140
   3.3330360  29.8931170  57.4052050   3.5272310  29.1574790  56.0963870
  16.4026740  29.7962600  51.2074820  15.5719700  29.8639250  51.6782050
  16.5798570  30.6866720  50.9041680  15.8583200  26.5410080  53.7109020
  16.6202110  27.1106730  53.8168710  15.8737570  25.9737280  54.4817330
  16.8643170  27.3960180  58.5550950  17.2352000  26.6127500  58.1486920
  17.5045100  28.0849280  58.3768250  15.9102370  26.8344450  50.8681540
  16.1851210  27.7423330  50.7400760  15.7213110  26.7706980  51.8043530
  12.3077980  19.8589300  52.1635170  12.7262860  19.6720280  51.3231830
  12.0014040  19.0068350  52.4738100  15.8067710  24.7713440  55.8610970
  15.4311310  24.0041370  55.4292260  15.0770830  25.1536140  56.3485900
  15.0818670  22.9970930  59.1618210  15.6056150  22.5033580  58.5308380
  15.6678090  23.1321290  59.9065780  14.5718640  22.2544280  55.1010620
  15.0677760  22.0215150  55.8859500  14.3734710  21.4156120  54.6848260
  16.0005800  20.8905230  57.6348300  15.8905080  20.7361270  58.5730570
  16.7613390  20.3626170  57.3923710  16.8896070  18.7213150  50.8754440
  17.8145380  18.5894330  50.6672730  16.8671860  18.8005970  51.8290890
  16.9634560  19.4923810  53.5011150  16.1686060  19.4268930  54.0304060
  17.1677840  20.4274450  53.4896500  13.9052980  33.5315360  57.4949540
  14.5012050  33.2099930  56.8183960  14.1631130  33.0587180  58.2862810
  14.4565190  34.1810660  61.3247270  13.9968160  34.9326470  60.9505290
  13.8277650  33.4617130  61.2662070   4.8860910  32.4898900  60.4995400
   5.4025930  31.8786260  59.9743660   5.5358290  32.9927680  60.9906410
  13.3954490  17.8220690  59.9509980  13.8362580  17.7665790  59.1031580
  13.1262080  18.7378700  60.0220160  15.2593060  17.4535930  57.9618800
  15.1981460  16.5097150  57.8149820  16.0385090  17.5616020  58.5072260
   6.7287640  19.5384340  57.4176920   5.9162150  19.1641230  57.0772800
   7.2329280  18.7829420  57.7198110  11.2312620  16.2026790  58.6559990
  11.8341990  16.7747000  59.1308510  10.4905610  16.7666230  58.4333890
  14.3747220  16.6048350  53.9300270  14.5697850  17.5031800  54.1967700
  13.5877090  16.3735430  54.4233220   2.5598980  17.9509120  52.9676580
   3.0891740  17.1638920  52.8384530   3.1927300  18.6300310  53.2012110
   4.7536820  17.6884260  56.0221970   4.1239560  16.9871570  56.1892100
   4.2141960  18.4488390  55.8055130  15.9273830  33.8449060  55.6906830
  16.1026020  33.1586800  55.0467750  15.2295400  34.3696110  55.2983500
   3.7701480  34.2343900  53.2442140   4.5020300  33.9503180  52.6966030
   4.0295150  33.9957180  54.1341520   2.9316270  30.3508630  53.2488470
   2.3025150  30.8193730  53.7974300   3.0464100  29.5057850  53.6834660
  10.3865990  24.4014290  39.3989670  10.3060040  23.4868900  39.1281380
   9.9730410  24.8981360  38.6929380   8.5184030  26.1793310  41.2798940
   7.7426130  25.6993750  41.5697510   9.1696960  25.4998960  41.1055100
  12.5391460  30.5853500  40.0598070  12.0772990  29.8140740  40.3885240
  13.3517010  30.6119570  40.5650520   2.5151120  30.5253210  42.3532720
   2.8179160  29.6350950  42.1742940   3.2594710  31.0823430  42.1254970
   8.7654770  32.8711510  39.6802060   8.1466210  33.3269010  39.1096500
   9.6206550  33.0262970  39.2791760   7.9593020  28.8550500  41.2869100
   7.8901300  27.9140440  41.1258230   8.7212880  28.9451910  41.8591670
   8.9898190  21.6620880  41.5138030   9.3663010  20.7892760  41.4011700
   8.8917700  21.9979580  40.6228470   3.1203200  20.0346510  36.9755470
   3.2269950  20.9350240  37.2824230   2.2095560  19.9864480  36.6850120
  12.7722310  19.1571320  38.4466370  13.5931930  18.6667890  38.4891850
  12.8056390  19.7468980  39.1998210   4.9610930  23.0032880  41.3080650
   5.4689150  23.5013850  41.9485670   5.4924170  22.2268080  41.1320010
  17.0621860  21.1738070  45.0110000  16.3574030  21.5619780  44.4925110
  17.3279780  21.8688360  45.6130930   3.2447030  17.6431440  45.5744070
   3.2465470  18.1603830  44.7689970   2.4151340  17.1661620  45.5514000
   9.6318120  27.7550750  37.0733970   9.0135390  28.2200200  36.5096690
  10.1441370  28.4478230  37.4903480   4.4949880  27.2826620  43.7517570
   4.1619260  27.9095540  44.3938640   4.6716560  27.8088500  42.9719240
  13.0083790  21.0971700  41.2193910  12.3039360  21.3856590  41.7997020
  13.3695950  21.9071810  40.8593470   2.9262360  19.3541400  43.5814520
   3.2679170  20.1983450  43.2868390   1.9878170  19.5025140  43.6979860
   3.7068980  29.2507420  45.5666750   4.3242980  29.9258500  45.2851200
   2.8462100  29.6595400  45.4754250  14.6246570  30.7146830  43.4821390
  13.9410090  31.3845940  43.4738060  15.1640860  30.9127480  42.7166250
  16.0770710  20.5426490  41.6103120  15.1295620  20.5765470  41.7418550
  16.4020700  21.3565440  41.9952480   6.6090250  16.8423670  39.9059110
   6.9165230  16.2870560  39.1894610   5.6790950  16.9768130  39.7232100
  12.1605310  32.5590960  42.1966570  12.1732470  32.1553250  41.3288830
  11.6080530  33.3338250  42.0928000  13.4550730  29.2807180  37.2856740
  13.3447060  28.3381510  37.4106160  13.4518980  29.6422820  38.1719500
  11.5590750  27.4620800  43.5249180  11.9759540  27.2480910  42.6902640
  12.2830570  27.7193590  44.0957800   8.9971010  24.9072500  36.6419230
   8.0700290  24.8409880  36.8707700   9.1495830  25.8452630  36.5274470
   8.9840090  21.1789500  33.6386390   8.0443760  21.3403460  33.7238850
   9.3023350  21.8975180  33.0922380  15.5052850  25.8608020  43.6165420
  14.6771480  25.9301110  43.1415550  16.1003330  26.4462330  43.1481250
  13.0268300  26.4692800  37.1454480  12.4080720  26.1312350  36.4980780
  13.0092750  25.8252560  37.8533670  12.4694860  22.6477340  44.5620290
  12.0566040  23.4731050  44.8160280  11.7370810  22.0622380  44.3696650
   4.6027650  25.4337240  39.4238960   4.1984650  24.7214490  38.9284860
   4.6890770  25.0890480  40.3127000   5.0709350  29.1204800  41.5878170
   4.7737640  28.5150270  40.9085950   6.0209170  29.1582110  41.4767530
   3.3156270  22.2080450  43.2038000   3.8670860  22.3175790  42.4291250
   3.8299780  22.5818050  43.9193230  13.1594960  32.6936670  45.2501270
  12.6825520  33.5008860  45.0573880  12.4756750  32.0415000  45.4027480
   4.1627780  28.8586490  48.2385970   3.2656310  29.0826460  48.4859370
   4.1880650  28.9821430  47.2897370  11.2033000  25.7079610  34.1527230
  11.6426280  24.8702040  34.0065050  11.9161420  26.3409010  34.2391370
   2.9899000  25.7299810  46.8143340   2.8506770  26.6022610  47.1830740
   2.1080360  25.3872620  46.6691280   9.3128380  30.6475680  38.1208470
   9.7524290  31.3900010  37.7063860   9.2515270  30.8902250  39.0447430
   4.7879350  31.6721510  49.0228490   4.7594780  32.0764460  48.1556920
   4.6244320  30.7431870  48.8600090  14.7850140  16.9622420  32.4668270
  14.4722800  17.0549250  33.3667340  15.5462610  17.5403450  32.4165700
  16.7394170  32.4548610  50.3192660  17.2153890  32.9331500  50.9981740
  17.3601330  32.3866100  49.5938160  16.1427420  29.6461460  47.4792670
  16.2690480  29.4073340  46.5609850  16.1848800  28.8146000  47.9514750
  10.0044160  33.3489460  46.0487480  10.5188830  33.2597470  46.8509910
   9.1613240  33.6949160  46.3415390  11.9798560  33.6344800  35.4771480
  11.8199700  33.3447740  36.3753310  11.8145270  32.8584930  34.9416710
   4.4586940  33.4143330  37.2543100   4.2829420  32.4978870  37.0410900
   3.6042680  33.7730620  37.4940900  11.6824690  31.1432360  34.0369480
  10.9889850  31.1409650  33.3771760  12.4247550  30.7191680  33.6063650
  11.2474620  32.7695070  38.1117970  11.7031570  31.9884450  38.4256590
  11.5867140  33.4801890  38.6559150  15.9951430  21.6993920  48.4442410
  15.3795700  22.2073590  47.9157870  15.6747850  20.7992250  48.3868350
   3.7695940  17.6717290  40.3069280   3.3264090  18.4526830  39.9753800
   4.3280930  17.9947180  41.0140220   8.0565750  20.5385810  45.9104600
   7.5945120  20.7468830  46.7224540   7.6543860  19.7245160  45.6075270
  13.0570260  21.7594760  47.0401260  12.2063850  21.4600510  47.3610330
  12.8972050  22.0036770  46.1285080  10.1519970  23.2596510  49.1400050
  10.4773380  22.4260260  48.8002280  10.9400300  23.7825030  49.2878380
   6.8854760  17.2927990  35.1875110   6.2608940  17.2887860  35.9128420
   6.7984880  16.4258950  34.7911080   5.8071840  18.2164620  42.1658880
   6.1044170  19.1227450  42.0850900   6.3557400  17.7283400  41.5518450
   3.5610160  22.7950860  38.0350530   3.3351080  22.5788030  38.9397150
   2.7802690  23.2279320  37.6896500  10.7907920  22.8014230  36.6341180
  10.1916810  23.5250030  36.4504800  11.3387530  22.7391010  35.8517630
   6.0009370  23.6936440  48.7010800   5.9052970  22.7531170  48.5511200
   6.8441350  23.9151510  48.3058870   9.3972790  21.4377770  38.6644460
   9.7902360  21.7549970  37.8513150   9.7589640  20.5589650  38.7788980
   7.7064960  20.1885080  49.9241320   7.0163280  19.9957280  50.5587410
   8.4497260  20.4719720  50.4565620   9.9827930  24.0283520  42.7595240
   9.2509050  24.5370330  43.1085340   9.5852270  23.2113500  42.4584020
   6.4205320  20.7037720  41.1647730   6.4241380  20.2627670  40.3152270
   7.3156440  21.0255050  41.2719550   6.4825470  21.7049800  34.1554490
   6.6038290  21.6636280  35.1040310   6.0973980  22.5673950  34.0001220
  10.4453840  19.4817200  42.1718180  10.4626580  19.9325850  43.0160030
  10.1969420  18.5822840  42.3851620   5.4946970  24.0150940  33.5537790
   4.9263870  23.5669190  32.9273700   6.2035970  24.3743720  33.0202940
  13.8724590  16.8949380  48.0104560  14.1970360  16.1639040  48.5362540
  13.9081100  16.5763020  47.1085550   6.7213290  24.7639500  42.9113140
   7.0883420  24.2898070  43.6574480   6.5318350  25.6381070  43.2521480
   4.5112660  23.8048140  45.2297350   4.2069730  24.6840120  45.4547710
   5.4659120  23.8647930  45.2654790   3.0394450  28.0109130  35.8264200
   2.2656710  27.4706750  35.6662920   3.7689080  27.4915740  35.4881960
  13.7982430  27.0074490  41.6190590  14.5181550  27.5029780  41.2286700
  13.5964250  26.3292380  40.9744460   9.2592370  18.4012450  35.7619980
   8.4456980  17.9025620  35.6865290   9.0654320  19.2410700  35.3456330
   9.1801230  27.0783550  47.5059590   9.1138540  26.1579220  47.2517180
   8.5506370  27.1758990  48.2204230  11.9740760  22.7732100  34.0582140
  12.8620380  23.0849330  33.8833480  11.9445850  21.9004350  33.6662720
   3.0831850  27.6789510  39.4643010   3.6010520  26.8757770  39.4099900
   2.6315870  27.6168650  40.3059840   7.9701350  28.9455790  34.7370310
   8.3117050  29.6898020  34.2413630   7.1414060  29.2586910  35.0995140
   3.7689510  25.1035120  49.2608260   3.4689650  25.2492300  48.3636080
   4.5400750  24.5440410  49.1681650   9.1117960  29.9004120  47.2563390
   9.1262500  28.9685080  47.0382300   8.4043060  29.9863880  47.8953160
  14.2455030  24.0843940  33.5262000  14.1618750  24.5158160  32.6758440
  14.9649220  24.5442290  33.9588820  15.3229170  26.5411460  46.6031970
  14.5977360  27.1340240  46.4061360  15.8504630  26.5335000  45.8045340
  15.2742280  30.9386200  36.2544130  14.6318440  30.2841820  36.5287850
  14.8872940  31.3441290  35.4784800  10.8528760  28.2671630  40.1015820
  11.2052580  27.6699760  39.4417190   9.9691090  27.9415860  40.2724070
   6.9392040  29.0269320  37.5086230   7.6263170  29.5738530  37.8893820
   6.1524460  29.5710050  37.5435840   6.2419250  26.0315350  37.1211590
   6.6982030  26.8420600  37.3471780   5.8907460  25.7138490  37.9530080
   8.5451860  31.5421690  44.3503890   9.1894080  31.7481070  45.0277310
   8.9081300  30.7810090  43.8974740   9.8183940  29.5454040  43.0681340
  10.4606170  28.8447200  43.1813510  10.3433290  30.3252480  42.8878230
  13.6639660  29.8302660  32.7920480  13.4377240  29.1133100  33.3845120
  13.2735860  29.5815100  31.9542230  11.5921560  30.3448940  46.2717400
  11.9277800  30.9315630  46.9495320  10.6721900  30.2141650  46.5015190
  13.2455910  27.7474600  34.4534640  12.9577610  28.2087290  35.2412520
  14.0408080  27.2872370  34.7218860   7.4210140  30.3940270  49.4405460
   7.1007010  29.6749510  49.9851150   6.7468500  31.0695340  49.5141520
   5.4624310  31.2400720  34.3838610   5.4534410  31.9730410  33.7683120
   4.5422670  30.9932300  34.4765570  10.6363740  20.6266430  44.8042260
  11.0044560  19.8061640  45.1321830   9.7761940  20.6868320  45.2197910
  14.0025770  19.5823370  35.6129820  13.3738930  19.6869040  34.8988050
  13.5077690  19.8020150  36.4023700   8.4483910  31.3028960  33.0463800
   8.5495890  31.0992950  32.1165780   7.5485650  31.0487240  33.2511580
   5.9709800  21.8609320  37.0287700   5.2625950  22.3295660  37.4701310
   6.2554280  21.2031330  37.6632890   7.5965730  23.2806020  45.0280230
   8.0950980  23.7551840  45.6932080   7.7388680  22.3569540  45.2350260
  10.0025230  18.5859980  38.4683490   9.8793010  18.6046110  37.5193000
  10.9509790  18.6338920  38.5881890   7.0902020  33.8215280  37.7411470
   7.3443520  33.7836670  36.8190840   6.1414500  33.6948610  37.7339720
   4.1744820  20.1694400  34.4038410   5.0235350  20.6064550  34.3378600
   3.8076090  20.4814660  35.2310470  14.8032590  19.4973980  45.8708620
  14.3006190  20.2379380  46.2102430  15.6189250  19.8857980  45.5545410
  13.0954600  24.7407160  39.3169980  12.1544740  24.7557390  39.4917670
  13.4098670  23.9543120  39.7630280   3.0736240  26.4226760  32.8773940
   3.8399510  26.3108120  33.4399370   3.1510930  25.7264730  32.2250710
   1.7683000  23.8551830  33.5606830   1.8486590  22.9079340  33.6724230
   2.6602750  24.1858710  33.6667490  15.0980180  31.9116010  40.9924240
  15.2227600  32.7347180  41.4648050  15.9645740  31.7006740  40.6448390
   2.5697710  34.0047220  40.6641370   3.3060190  33.4562680  40.9349940
   2.9538630  34.8703230  40.5247360   5.6800020  33.1777530  32.4866940
   6.4728630  33.4666360  32.0348730   5.1604370  32.7469700  31.8079420
  10.4120620  29.2973160  49.8002360   9.8058780  29.3204760  49.0598110
  10.1074730  28.5656200  50.3369610  11.8420990  33.0253450  48.4111770
  12.7942740  32.9411470  48.3612010  11.6949210  33.6895160  49.0845560
  14.7330190  32.4047660  33.9103680  14.4471700  31.9912800  33.0957860
  14.5349740  33.3335370  33.7904200   6.1977420  28.3980940  32.3509290
   6.0928060  27.7833290  33.0770670   6.0301640  27.8746830  31.5672300
   6.3491740  27.0837740  48.3298520   5.5837410  27.6522740  48.2453190
   6.5307700  26.7913950  47.4366750   9.4380150  27.4600970  32.9551280
   8.8890250  27.9070270  33.5994020  10.0599410  26.9550220  33.4788950
  13.4915090  28.8143070  48.8873540  14.2324560  29.1518830  48.3841000
  12.7287770  28.9835130  48.3343310   5.1055270  26.4191890  34.8516580
   5.5271690  26.2531760  35.6947970   5.2306110  25.6092120  34.3571720
   3.2682690  22.3988440  47.6587560   2.7379150  21.9079390  47.0310900
   3.9370760  22.8272640  47.1245490   7.6182910  25.4429500  32.0993680
   8.1388570  24.7278520  31.7334830   8.2651310  26.0815370  32.3994190
  12.1660750  26.8657900  47.4228750  12.5801770  27.0202980  48.2719170
  11.2311750  26.9913120  47.5854530  12.6382920  24.2054060  49.4267900
  13.2203690  23.4506380  49.3388380  12.8144690  24.7361500  48.6499380
   3.7554990  19.3650810  47.7384850   3.6611860  18.7471560  47.0135720
   3.1752380  20.0917100  47.5114760   6.5216430  17.9224050  44.7712240
   6.0733730  17.9448310  43.9257790   5.8881630  17.5243070  45.3682540
   6.9275980  26.8178380  45.3924680   7.3464090  27.6611110  45.2200920
   6.0084610  26.9550420  45.1631460   9.2639880  24.5494560  46.7762520
   9.3836090  23.9535700  47.5157360  10.1233880  24.5864250  46.3563820
  11.6027780  25.1031750  45.3525030  11.0763000  25.6274370  44.7490170
  11.9459120  25.7359140  45.9834760   4.0014170  22.4925120  31.7974740
   3.8003230  21.6292480  32.1588080   3.8306220  22.4058480  30.8596340
   4.7783400  33.1231390  46.5082410   4.2404490  33.8477450  46.1891110
   5.0317360  32.6461730  45.7179750   6.0308650  21.0915910  48.0338340
   6.6208340  20.7831760  48.7216160   5.2128890  20.6195660  48.1898240
  10.8502080  20.7081720  48.2671360  10.1617600  20.0463260  48.2021350
  11.5708100  20.2619990  48.7119820  11.4802480  17.3033350  34.3261620
  11.7604770  16.4601250  34.6821040  10.7068210  17.5356460  34.8400370
   2.7996970  19.5925740  31.7852620   3.1022870  19.5993170  30.8771770
   3.5391560  19.2423600  32.2820280   7.6345610  34.3582600  46.7669060
   7.5604310  35.2617740  47.0741430   6.7324450  34.0394500  46.7391130
   6.0181900  18.5360360  32.7708820   5.6703900  17.8584350  32.1911270
   6.2194670  18.0749870  33.5852210   8.1830940  33.5241110  34.3895420
   9.0781730  33.8626080  34.4114180   8.2148570  32.8020520  33.7619700
   1.8227100  28.8968160  32.6182420   2.2601970  29.4397830  33.2740000
   2.3074830  28.0715110  32.6278760   3.6334820  30.0166200  37.7304650
   3.3330360  29.8931170  38.6308560   3.5272310  29.1574790  37.3220380
  15.1625290  32.0544780  47.0961620  14.5627280  32.1137340  46.3525540
  15.2919190  31.1149760  47.2258470  16.4026740  29.7962600  32.4331330
  15.5719700  29.8639250  32.9038560  16.5798570  30.6866720  32.1298190
  15.8583200  26.5410080  34.9365530  16.6202110  27.1106730  35.0425220
  15.8737570  25.9737280  35.7073840  16.8643170  27.3960180  39.7807460
  17.2352000  26.6127500  39.3743430  17.5045100  28.0849280  39.6024760
  13.8476930  28.7796760  45.1937780  13.0336770  29.2093920  45.4563570
  14.2551130  29.3915170  44.5806830  15.9102370  26.8344450  32.0938050
  16.1851210  27.7423330  31.9657270  15.7213110  26.7706980  33.0300040
  12.3077980  19.8589300  33.3891680  12.7262860  19.6720280  32.5488340
  12.0014040  19.0068350  33.6994610  15.8067710  24.7713440  37.0867480
  15.4311310  24.0041370  36.6548770  15.0770830  25.1536140  37.5742410
  15.1967330  23.9184960  46.7207000  14.9653420  23.6897710  45.8204950
  15.4571880  24.8384510  46.6751890  13.6355400  19.1441390  49.4986700
  14.5125580  19.1524790  49.8820700  13.6476240  18.4072230  48.8879050
  15.0818670  22.9970930  40.3874720  15.6056150  22.5033580  39.7564890
  15.6678090  23.1321290  41.1322290  15.2608390  23.0810800  43.9094270
  14.3111100  23.0474340  44.0239260  15.4421400  23.9910910  43.6744040
  14.5718640  22.2544280  36.3267130  15.0677760  22.0215150  37.1116010
  14.3734710  21.4156120  35.9104770  16.0005800  20.8905230  38.8604810
  15.8905080  20.7361270  39.7987080  16.7613390  20.3626170  38.6180220
  14.3471520  16.8299360  45.3187810  14.9843740  17.4433500  45.6847000
  14.4946410  16.8660020  44.3737040  16.8896070  18.7213150  32.1010950
  17.8145380  18.5894330  31.8929240  16.8671860  18.8005970  33.0547400
  16.9634560  19.4923810  34.7267660  16.1686060  19.4268930  35.2560570
  17.1677840  20.4274450  34.7153010  13.9052980  33.5315360  38.7206050
  14.5012050  33.2099930  38.0440470  14.1631130  33.0587180  39.5119320
   1.8115550  29.9633270  48.8696680   1.7685180  29.5926180  49.7511140
   1.9426560  30.9010840  49.0098500   5.5121580  31.5192860  44.4706400
   5.2712940  31.7867420  43.5836920   6.4524220  31.6898590  44.5257260
   7.7176000  17.9825550  48.2262910   7.6564890  18.5747380  48.9758320
   8.6576380  17.8751510  48.0813170  10.3550560  17.6395610  47.8655200
  10.9690970  17.9574900  47.2036280  10.9000120  17.1544200  48.4851060
  16.7725740  33.5387240  45.2717040  16.2784020  33.9356110  44.5544170
  16.1639030  32.9136450  45.6654320  11.0958600  16.2027750  44.1924490
  10.2218440  16.5362860  43.9897420  10.9869350  15.7300930  45.0176360
  12.0030580  18.4098620  45.5766210  11.6743940  17.5950380  45.1967940
  12.9512880  18.3668430  45.4531900  14.4565190  34.1810660  42.5503780
  13.9968160  34.9326470  42.1761800  13.8277650  33.4617130  42.4918580
   4.8860910  32.4898900  41.7251910   5.4025930  31.8786260  41.2000170
   5.5358290  32.9927680  42.2162920   7.6256410  33.3807390  42.5520890
   7.9134220  33.1261690  41.6753900   8.1379630  32.8284750  43.1426460
   8.8433420  17.1197590  43.1317400   8.0605210  17.5943090  43.4114160
   8.5496350  16.2152420  43.0230580  13.3954490  17.8220690  41.1766490
  13.8362580  17.7665790  40.3288090  13.1262080  18.7378700  41.2476670
  15.2593060  17.4535930  39.1875310  15.1981460  16.5097150  39.0406330
  16.0385090  17.5616020  39.7328770   6.7287640  19.5384340  38.6433430
   5.9162150  19.1641230  38.3029310   7.2329280  18.7829420  38.9454620
  11.2312620  16.2026790  39.8816500  11.8341990  16.7747000  40.3565020
  10.4905610  16.7666230  39.6590400  14.3747220  16.6048350  35.1556780
  14.5697850  17.5031800  35.4224210  13.5877090  16.3735430  35.6489730
   2.5598980  17.9509120  34.1933090   3.0891740  17.1638920  34.0641040
   3.1927300  18.6300310  34.4268620   4.7536820  17.6884260  37.2478480
   4.1239560  16.9871570  37.4148610   4.2141960  18.4488390  37.0311640
   7.6928770  34.3023490  49.9189090   8.6196080  34.0667760  49.9625050
   7.6779200  35.1295490  49.4375120  15.9273830  33.8449060  36.9163340
  16.1026020  33.1586800  36.2724260  15.2295400  34.3696110  36.5240010
   4.8792380  16.9668240  49.6830970   4.5976650  17.4701840  48.9191790
   5.2612080  16.1689990  49.3173100   3.7701480  34.2343900  34.4698650
   4.5020300  33.9503180  33.9222540   4.0295150  33.9957180  35.3598030
   2.9316270  30.3508630  34.4744980   2.3025150  30.8193730  35.0230810
   3.0464100  29.5057850  34.9091170  11.4807840  16.3821820  50.2611440
  11.3673290  16.7016430  51.1562960  12.2977580  16.7834330  49.9648720
  14.2606330  33.5293350  49.7430130  15.0531650  33.0342580  49.5356090
  14.5539480  34.2083490  50.3505740  10.3865990  24.4014290  20.6246180
  10.3060040  23.4868900  20.3537890   9.9730410  24.8981360  19.9185890
   8.5184030  26.1793310  22.5055450   7.7426130  25.6993750  22.7954020
   9.1696960  25.4998960  22.3311610  12.5391460  30.5853500  21.2854580
  12.0772990  29.8140740  21.6141750  13.3517010  30.6119570  21.7907030
   2.5151120  30.5253210  23.5789230   2.8179160  29.6350950  23.3999450
   3.2594710  31.0823430  23.3511480   8.7654770  32.8711510  20.9058570
   8.1466210  33.3269010  20.3353010   9.6206550  33.0262970  20.5048270
   7.9593020  28.8550500  22.5125610   7.8901300  27.9140440  22.3514740
   8.7212880  28.9451910  23.0848180   8.9898190  21.6620880  22.7394540
   9.3663010  20.7892760  22.6268210   8.8917700  21.9979580  21.8484980
   3.1203200  20.0346510  18.2011980   3.2269950  20.9350240  18.5080740
   2.2095560  19.9864480  17.9106630  12.7722310  19.1571320  19.6722880
  13.5931930  18.6667890  19.7148360  12.8056390  19.7468980  20.4254720
   4.9610930  23.0032880  22.5337160   5.4689150  23.5013850  23.1742180
   5.4924170  22.2268080  22.3576520  17.0621860  21.1738070  26.2366510
  16.3574030  21.5619780  25.7181620  17.3279780  21.8688360  26.8387440
   3.2447030  17.6431440  26.8000580   3.2465470  18.1603830  25.9946480
   2.4151340  17.1661620  26.7770510   9.6318120  27.7550750  18.2990480
   9.0135390  28.2200200  17.7353200  10.1441370  28.4478230  18.7159990
   4.4949880  27.2826620  24.9774080   4.1619260  27.9095540  25.6195150
   4.6716560  27.8088500  24.1975750  13.0083790  21.0971700  22.4450420
  12.3039360  21.3856590  23.0253530  13.3695950  21.9071810  22.0849980
   2.9262360  19.3541400  24.8071030   3.2679170  20.1983450  24.5124900
   1.9878170  19.5025140  24.9236370   3.7068980  29.2507420  26.7923260
   4.3242980  29.9258500  26.5107710   2.8462100  29.6595400  26.7010760
  14.6246570  30.7146830  24.7077900  13.9410090  31.3845940  24.6994570
  15.1640860  30.9127480  23.9422760  16.0770710  20.5426490  22.8359630
  15.1295620  20.5765470  22.9675060  16.4020700  21.3565440  23.2208990
   6.6090250  16.8423670  21.1315620   6.9165230  16.2870560  20.4151120
   5.6790950  16.9768130  20.9488610  12.1605310  32.5590960  23.4223080
  12.1732470  32.1553250  22.5545340  11.6080530  33.3338250  23.3184510
  13.4550730  29.2807180  18.5113250  13.3447060  28.3381510  18.6362670
  13.4518980  29.6422820  19.3976010  11.5590750  27.4620800  24.7505690
  11.9759540  27.2480910  23.9159150  12.2830570  27.7193590  25.3214310
   8.9971010  24.9072500  17.8675740   8.0700290  24.8409880  18.0964210
   9.1495830  25.8452630  17.7530980   8.9840090  21.1789500  14.8642900
   8.0443760  21.3403460  14.9495360   9.3023350  21.8975180  14.3178890
  15.5052850  25.8608020  24.8421930  14.6771480  25.9301110  24.3672060
  16.1003330  26.4462330  24.3737760  13.0268300  26.4692800  18.3710990
  12.4080720  26.1312350  17.7237290  13.0092750  25.8252560  19.0790180
  12.4694860  22.6477340  25.7876800  12.0566040  23.4731050  26.0416790
  11.7370810  22.0622380  25.5953160   4.6027650  25.4337240  20.6495470
   4.1984650  24.7214490  20.1541370   4.6890770  25.0890480  21.5383510
   5.0709350  29.1204800  22.8134680   4.7737640  28.5150270  22.1342460
   6.0209170  29.1582110  22.7024040   3.3156270  22.2080450  24.4294510
   3.8670860  22.3175790  23.6547760   3.8299780  22.5818050  25.1449740
  13.1594960  32.6936670  26.4757780  12.6825520  33.5008860  26.2830390
  12.4756750  32.0415000  26.6283990   4.1627780  28.8586490  29.4642480
   3.2656310  29.0826460  29.7115880   4.1880650  28.9821430  28.5153880
  11.2033000  25.7079610  15.3783740  11.6426280  24.8702040  15.2321560
  11.9161420  26.3409010  15.4647880   2.9899000  25.7299810  28.0399850
   2.8506770  26.6022610  28.4087250   2.1080360  25.3872620  27.8947790
   9.3128380  30.6475680  19.3464980   9.7524290  31.3900010  18.9320370
   9.2515270  30.8902250  20.2703940   4.7879350  31.6721510  30.2485000
   4.7594780  32.0764460  29.3813430   4.6244320  30.7431870  30.0856600
  14.7850140  16.9622420  13.6924780  14.4722800  17.0549250  14.5923850
  15.5462610  17.5403450  13.6422210  16.7394170  32.4548610  31.5449170
  17.2153890  32.9331500  32.2238250  17.3601330  32.3866100  30.8194670
  16.1427420  29.6461460  28.7049180  16.2690480  29.4073340  27.7866360
  16.1848800  28.8146000  29.1771260  10.0044160  33.3489460  27.2743990
  10.5188830  33.2597470  28.0766420   9.1613240  33.6949160  27.5671900
  11.9798560  33.6344800  16.7027990  11.8199700  33.3447740  17.6009820
  11.8145270  32.8584930  16.1673220   4.4586940  33.4143330  18.4799610
   4.2829420  32.4978870  18.2667410   3.6042680  33.7730620  18.7197410
  11.6824690  31.1432360  15.2625990  10.9889850  31.1409650  14.6028270
  12.4247550  30.7191680  14.8320160  11.2474620  32.7695070  19.3374480
  11.7031570  31.9884450  19.6513100  11.5867140  33.4801890  19.8815660
  15.9951430  21.6993920  29.6698920  15.3795700  22.2073590  29.1414380
  15.6747850  20.7992250  29.6124860   3.7695940  17.6717290  21.5325790
   3.3264090  18.4526830  21.2010310   4.3280930  17.9947180  22.2396730
   8.0565750  20.5385810  27.1361110   7.5945120  20.7468830  27.9481050
   7.6543860  19.7245160  26.8331780  13.0570260  21.7594760  28.2657770
  12.2063850  21.4600510  28.5866840  12.8972050  22.0036770  27.3541590
  10.1519970  23.2596510  30.3656560  10.4773380  22.4260260  30.0258790
  10.9400300  23.7825030  30.5134890   6.8854760  17.2927990  16.4131620
   6.2608940  17.2887860  17.1384930   6.7984880  16.4258950  16.0167590
   5.8071840  18.2164620  23.3915390   6.1044170  19.1227450  23.3107410
   6.3557400  17.7283400  22.7774960   3.5610160  22.7950860  19.2607040
   3.3351080  22.5788030  20.1653660   2.7802690  23.2279320  18.9153010
  10.7907920  22.8014230  17.8597690  10.1916810  23.5250030  17.6761310
  11.3387530  22.7391010  17.0774140   6.0009370  23.6936440  29.9267310
   5.9052970  22.7531170  29.7767710   6.8441350  23.9151510  29.5315380
   9.3972790  21.4377770  19.8900970   9.7902360  21.7549970  19.0769660
   9.7589640  20.5589650  20.0045490   7.7064960  20.1885080  31.1497830
   7.0163280  19.9957280  31.7843920   8.4497260  20.4719720  31.6822130
   9.9827930  24.0283520  23.9851750   9.2509050  24.5370330  24.3341850
   9.5852270  23.2113500  23.6840530   6.4205320  20.7037720  22.3904240
   6.4241380  20.2627670  21.5408780   7.3156440  21.0255050  22.4976060
   6.4825470  21.7049800  15.3811000   6.6038290  21.6636280  16.3296820
   6.0973980  22.5673950  15.2257730  10.4453840  19.4817200  23.3974690
  10.4626580  19.9325850  24.2416540  10.1969420  18.5822840  23.6108130
   5.4946970  24.0150940  14.7794300   4.9263870  23.5669190  14.1530210
   6.2035970  24.3743720  14.2459450  13.8724590  16.8949380  29.2361070
  14.1970360  16.1639040  29.7619050  13.9081100  16.5763020  28.3342060
   6.7213290  24.7639500  24.1369650   7.0883420  24.2898070  24.8830990
   6.5318350  25.6381070  24.4777990   4.5112660  23.8048140  26.4553860
   4.2069730  24.6840120  26.6804220   5.4659120  23.8647930  26.4911300
   3.0394450  28.0109130  17.0520710   2.2656710  27.4706750  16.8919430
   3.7689080  27.4915740  16.7138470  13.7982430  27.0074490  22.8447100
  14.5181550  27.5029780  22.4543210  13.5964250  26.3292380  22.2000970
   9.2592370  18.4012450  16.9876490   8.4456980  17.9025620  16.9121800
   9.0654320  19.2410700  16.5712840   9.1801230  27.0783550  28.7316100
   9.1138540  26.1579220  28.4773690   8.5506370  27.1758990  29.4460740
  11.9740760  22.7732100  15.2838650  12.8620380  23.0849330  15.1089990
  11.9445850  21.9004350  14.8919230   3.0831850  27.6789510  20.6899520
   3.6010520  26.8757770  20.6356410   2.6315870  27.6168650  21.5316350
   7.9701350  28.9455790  15.9626820   8.3117050  29.6898020  15.4670140
   7.1414060  29.2586910  16.3251650   3.7689510  25.1035120  30.4864770
   3.4689650  25.2492300  29.5892590   4.5400750  24.5440410  30.3938160
   9.1117960  29.9004120  28.4819900   9.1262500  28.9685080  28.2638810
   8.4043060  29.9863880  29.1209670  14.2455030  24.0843940  14.7518510
  14.1618750  24.5158160  13.9014950  14.9649220  24.5442290  15.1845330
  15.3229170  26.5411460  27.8288480  14.5977360  27.1340240  27.6317870
  15.8504630  26.5335000  27.0301850  15.2742280  30.9386200  17.4800640
  14.6318440  30.2841820  17.7544360  14.8872940  31.3441290  16.7041310
  10.8528760  28.2671630  21.3272330  11.2052580  27.6699760  20.6673700
   9.9691090  27.9415860  21.4980580   6.9392040  29.0269320  18.7342740
   7.6263170  29.5738530  19.1150330   6.1524460  29.5710050  18.7692350
   6.2419250  26.0315350  18.3468100   6.6982030  26.8420600  18.5728290
   5.8907460  25.7138490  19.1786590   8.5451860  31.5421690  25.5760400
   9.1894080  31.7481070  26.2533820   8.9081300  30.7810090  25.1231250
   9.8183940  29.5454040  24.2937850  10.4606170  28.8447200  24.4070020
  10.3433290  30.3252480  24.1134740  13.6639660  29.8302660  14.0176990
  13.4377240  29.1133100  14.6101630  13.2735860  29.5815100  13.1798740
  11.5921560  30.3448940  27.4973910  11.9277800  30.9315630  28.1751830
  10.6721900  30.2141650  27.7271700  13.2455910  27.7474600  15.6791150
  12.9577610  28.2087290  16.4669030  14.0408080  27.2872370  15.9475370
   7.4210140  30.3940270  30.6661970   7.1007010  29.6749510  31.2107660
   6.7468500  31.0695340  30.7398030   5.4624310  31.2400720  15.6095120
   5.4534410  31.9730410  14.9939630   4.5422670  30.9932300  15.7022080
  10.6363740  20.6266430  26.0298770  11.0044560  19.8061640  26.3578340
   9.7761940  20.6868320  26.4454420  14.0025770  19.5823370  16.8386330
  13.3738930  19.6869040  16.1244560  13.5077690  19.8020150  17.6280210
   8.4483910  31.3028960  14.2720310   8.5495890  31.0992950  13.3422290
   7.5485650  31.0487240  14.4768090   5.9709800  21.8609320  18.2544210
   5.2625950  22.3295660  18.6957820   6.2554280  21.2031330  18.8889400
   7.5965730  23.2806020  26.2536740   8.0950980  23.7551840  26.9188590
   7.7388680  22.3569540  26.4606770  10.0025230  18.5859980  19.6940000
   9.8793010  18.6046110  18.7449510  10.9509790  18.6338920  19.8138400
   7.0902020  33.8215280  18.9667980   7.3443520  33.7836670  18.0447350
   6.1414500  33.6948610  18.9596230   4.1744820  20.1694400  15.6294920
   5.0235350  20.6064550  15.5635110   3.8076090  20.4814660  16.4566980
  14.8032590  19.4973980  27.0965130  14.3006190  20.2379380  27.4358940
  15.6189250  19.8857980  26.7801920  13.0954600  24.7407160  20.5426490
  12.1544740  24.7557390  20.7174180  13.4098670  23.9543120  20.9886790
   3.0736240  26.4226760  14.1030450   3.8399510  26.3108120  14.6655880
   3.1510930  25.7264730  13.4507220   1.7683000  23.8551830  14.7863340
   1.8486590  22.9079340  14.8980740   2.6602750  24.1858710  14.8924000
  15.0980180  31.9116010  22.2180750  15.2227600  32.7347180  22.6904560
  15.9645740  31.7006740  21.8704900   2.5697710  34.0047220  21.8897880
   3.3060190  33.4562680  22.1606450   2.9538630  34.8703230  21.7503870
   5.6800020  33.1777530  13.7123450   6.4728630  33.4666360  13.2605240
   5.1604370  32.7469700  13.0335930  10.4120620  29.2973160  31.0258870
   9.8058780  29.3204760  30.2854620  10.1074730  28.5656200  31.5626120
  11.8420990  33.0253450  29.6368280  12.7942740  32.9411470  29.5868520
  11.6949210  33.6895160  30.3102070  14.7330190  32.4047660  15.1360190
  14.4471700  31.9912800  14.3214370  14.5349740  33.3335370  15.0160710
   6.1977420  28.3980940  13.5765800   6.0928060  27.7833290  14.3027180
   6.0301640  27.8746830  12.7928810   6.3491740  27.0837740  29.5555030
   5.5837410  27.6522740  29.4709700   6.5307700  26.7913950  28.6623260
   9.4380150  27.4600970  14.1807790   8.8890250  27.9070270  14.8250530
  10.0599410  26.9550220  14.7045460  13.4915090  28.8143070  30.1130050
  14.2324560  29.1518830  29.6097510  12.7287770  28.9835130  29.5599820
   5.1055270  26.4191890  16.0773090   5.5271690  26.2531760  16.9204480
   5.2306110  25.6092120  15.5828230   3.2682690  22.3988440  28.8844070
   2.7379150  21.9079390  28.2567410   3.9370760  22.8272640  28.3502000
   7.6182910  25.4429500  13.3250190   8.1388570  24.7278520  12.9591340
   8.2651310  26.0815370  13.6250700  12.1660750  26.8657900  28.6485260
  12.5801770  27.0202980  29.4975680  11.2311750  26.9913120  28.8111040
  12.6382920  24.2054060  30.6524410  13.2203690  23.4506380  30.5644890
  12.8144690  24.7361500  29.8755890   3.7554990  19.3650810  28.9641360
   3.6611860  18.7471560  28.2392230   3.1752380  20.0917100  28.7371270
   6.5216430  17.9224050  25.9968750   6.0733730  17.9448310  25.1514300
   5.8881630  17.5243070  26.5939050   6.9275980  26.8178380  26.6181190
   7.3464090  27.6611110  26.4457430   6.0084610  26.9550420  26.3887970
   9.2639880  24.5494560  28.0019030   9.3836090  23.9535700  28.7413870
  10.1233880  24.5864250  27.5820330  11.6027780  25.1031750  26.5781540
  11.0763000  25.6274370  25.9746680  11.9459120  25.7359140  27.2091270
   4.0014170  22.4925120  13.0231250   3.8003230  21.6292480  13.3844590
   3.8306220  22.4058480  12.0852850   4.7783400  33.1231390  27.7338920
   4.2404490  33.8477450  27.4147620   5.0317360  32.6461730  26.9436260
   6.0308650  21.0915910  29.2594850   6.6208340  20.7831760  29.9472670
   5.2128890  20.6195660  29.4154750  10.8502080  20.7081720  29.4927870
  10.1617600  20.0463260  29.4277860  11.5708100  20.2619990  29.9376330
  11.4802480  17.3033350  15.5518130  11.7604770  16.4601250  15.9077550
  10.7068210  17.5356460  16.0656880   2.7996970  19.5925740  13.0109130
   3.1022870  19.5993170  12.1028280   3.5391560  19.2423600  13.5076790
   7.6345610  34.3582600  27.9925570   7.5604310  35.2617740  28.2997940
   6.7324450  34.0394500  27.9647640   6.0181900  18.5360360  13.9965330
   5.6703900  17.8584350  13.4167780   6.2194670  18.0749870  14.8108720
   8.1830940  33.5241110  15.6151930   9.0781730  33.8626080  15.6370690
   8.2148570  32.8020520  14.9876210   1.8227100  28.8968160  13.8438930
   2.2601970  29.4397830  14.4996510   2.3074830  28.0715110  13.8535270
   3.6334820  30.0166200  18.9561160   3.3330360  29.8931170  19.8565070
   3.5272310  29.1574790  18.5476890  15.1625290  32.0544780  28.3218130
  14.5627280  32.1137340  27.5782050  15.2919190  31.1149760  28.4514980
  16.4026740  29.7962600  13.6587840  15.5719700  29.8639250  14.1295070
  16.5798570  30.6866720  13.3554700  15.8583200  26.5410080  16.1622040
  16.6202110  27.1106730  16.2681730  15.8737570  25.9737280  16.9330350
  16.8643170  27.3960180  21.0063970  17.2352000  26.6127500  20.5999940
  17.5045100  28.0849280  20.8281270  13.8476930  28.7796760  26.4194290
  13.0336770  29.2093920  26.6820080  14.2551130  29.3915170  25.8063340
  15.9102370  26.8344450  13.3194560  16.1851210  27.7423330  13.1913780
  15.7213110  26.7706980  14.2556550  12.3077980  19.8589300  14.6148190
  12.7262860  19.6720280  13.7744850  12.0014040  19.0068350  14.9251120
  15.8067710  24.7713440  18.3123990  15.4311310  24.0041370  17.8805280
  15.0770830  25.1536140  18.7998920  15.1967330  23.9184960  27.9463510
  14.9653420  23.6897710  27.0461460  15.4571880  24.8384510  27.9008400
  13.6355400  19.1441390  30.7243210  14.5125580  19.1524790  31.1077210
  13.6476240  18.4072230  30.1135560  15.0818670  22.9970930  21.6131230
  15.6056150  22.5033580  20.9821400  15.6678090  23.1321290  22.3578800
  15.2608390  23.0810800  25.1350780  14.3111100  23.0474340  25.2495770
  15.4421400  23.9910910  24.9000550  14.5718640  22.2544280  17.5523640
  15.0677760  22.0215150  18.3372520  14.3734710  21.4156120  17.1361280
  16.0005800  20.8905230  20.0861320  15.8905080  20.7361270  21.0243590
  16.7613390  20.3626170  19.8436730  14.3471520  16.8299360  26.5444320
  14.9843740  17.4433500  26.9103510  14.4946410  16.8660020  25.5993550
  16.8896070  18.7213150  13.3267460  17.8145380  18.5894330  13.1185750
  16.8671860  18.8005970  14.2803910  16.9634560  19.4923810  15.9524170
  16.1686060  19.4268930  16.4817080  17.1677840  20.4274450  15.9409520
  13.9052980  33.5315360  19.9462560  14.5012050  33.2099930  19.2696980
  14.1631130  33.0587180  20.7375830   1.8115550  29.9633270  30.0953190
   1.7685180  29.5926180  30.9767650   1.9426560  30.9010840  30.2355010
   5.5121580  31.5192860  25.6962910   5.2712940  31.7867420  24.8093430
   6.4524220  31.6898590  25.7513770   7.7176000  17.9825550  29.4519420
   7.6564890  18.5747380  30.2014830   8.6576380  17.8751510  29.3069680
  10.3550560  17.6395610  29.0911710  10.9690970  17.9574900  28.4292790
  10.9000120  17.1544200  29.7107570  16.7725740  33.5387240  26.4973550
  16.2784020  33.9356110  25.7800680  16.1639030  32.9136450  26.8910830
  11.0958600  16.2027750  25.4181000  10.2218440  16.5362860  25.2153930
  10.9869350  15.7300930  26.2432870  12.0030580  18.4098620  26.8022720
  11.6743940  17.5950380  26.4224450  12.9512880  18.3668430  26.6788410
  14.4565190  34.1810660  23.7760290  13.9968160  34.9326470  23.4018310
  13.8277650  33.4617130  23.7175090   4.8860910  32.4898900  22.9508420
   5.4025930  31.8786260  22.4256680   5.5358290  32.9927680  23.4419430
   7.6256410  33.3807390  23.7777400   7.9134220  33.1261690  22.9010410
   8.1379630  32.8284750  24.3682970   8.8433420  17.1197590  24.3573910
   8.0605210  17.5943090  24.6370670   8.5496350  16.2152420  24.2487090
  13.3954490  17.8220690  22.4023000  13.8362580  17.7665790  21.5544600
  13.1262080  18.7378700  22.4733180  15.2593060  17.4535930  20.4131820
  15.1981460  16.5097150  20.2662840  16.0385090  17.5616020  20.9585280
   6.7287640  19.5384340  19.8689940   5.9162150  19.1641230  19.5285820
   7.2329280  18.7829420  20.1711130  11.2312620  16.2026790  21.1073010
  11.8341990  16.7747000  21.5821530  10.4905610  16.7666230  20.8846910
  14.3747220  16.6048350  16.3813290  14.5697850  17.5031800  16.6480720
  13.5877090  16.3735430  16.8746240   2.5598980  17.9509120  15.4189600
   3.0891740  17.1638920  15.2897550   3.1927300  18.6300310  15.6525130
   4.7536820  17.6884260  18.4734990   4.1239560  16.9871570  18.6405120
   4.2141960  18.4488390  18.2568150   7.6928770  34.3023490  31.1445600
   8.6196080  34.0667760  31.1881560   7.6779200  35.1295490  30.6631630
  15.9273830  33.8449060  18.1419850  16.1026020  33.1586800  17.4980770
  15.2295400  34.3696110  17.7496520   4.8792380  16.9668240  30.9087480
   4.5976650  17.4701840  30.1448300   5.2612080  16.1689990  30.5429610
   3.7701480  34.2343900  15.6955160   4.5020300  33.9503180  15.1479050
   4.0295150  33.9957180  16.5854540   2.9316270  30.3508630  15.7001490
   2.3025150  30.8193730  16.2487320   3.0464100  29.5057850  16.1347680
  11.4807840  16.3821820  31.4867950  11.3673290  16.7016430  32.3819470
  12.2977580  16.7834330  31.1905230  14.2606330  33.5293350  30.9686640
  15.0531650  33.0342580  30.7612600  14.5539480  34.2083490  31.5762250
   8.5184030  26.1793310   3.7311960   7.7426130  25.6993750   4.0210530
   9.1696960  25.4998960   3.5568120  12.5391460  30.5853500   2.5111090
  12.0772990  29.8140740   2.8398260  13.3517010  30.6119570   3.0163540
   2.5151120  30.5253210   4.8045740   2.8179160  29.6350950   4.6255960
   3.2594710  31.0823430   4.5767990   7.9593020  28.8550500   3.7382120
   7.8901300  27.9140440   3.5771250   8.7212880  28.9451910   4.3104690
   8.9898190  21.6620880   3.9651050   9.3663010  20.7892760   3.8524720
   8.8917700  21.9979580   3.0741490   4.9610930  23.0032880   3.7593670
   5.4689150  23.5013850   4.3998690   5.4924170  22.2268080   3.5833030
  17.0621860  21.1738070   7.4623020  16.3574030  21.5619780   6.9438130
  17.3279780  21.8688360   8.0643950   3.2447030  17.6431440   8.0257090
   3.2465470  18.1603830   7.2202990   2.4151340  17.1661620   8.0027020
   4.4949880  27.2826620   6.2030590   4.1619260  27.9095540   6.8451660
   4.6716560  27.8088500   5.4232260  13.0083790  21.0971700   3.6706930
  12.3039360  21.3856590   4.2510040  13.3695950  21.9071810   3.3106490
   2.9262360  19.3541400   6.0327540   3.2679170  20.1983450   5.7381410
   1.9878170  19.5025140   6.1492880   3.7068980  29.2507420   8.0179770
   4.3242980  29.9258500   7.7364220   2.8462100  29.6595400   7.9267270
  14.6246570  30.7146830   5.9334410  13.9410090  31.3845940   5.9251080
  15.1640860  30.9127480   5.1679270  16.0770710  20.5426490   4.0616140
  15.1295620  20.5765470   4.1931570  16.4020700  21.3565440   4.4465500
  12.1605310  32.5590960   4.6479590  12.1732470  32.1553250   3.7801850
  11.6080530  33.3338250   4.5441020  11.5590750  27.4620800   5.9762200
  11.9759540  27.2480910   5.1415660  12.2830570  27.7193590   6.5470820
  15.5052850  25.8608020   6.0678440  14.6771480  25.9301110   5.5928570
  16.1003330  26.4462330   5.5994270  12.4694860  22.6477340   7.0133310
  12.0566040  23.4731050   7.2673300  11.7370810  22.0622380   6.8209670
   5.0709350  29.1204800   4.0391190   4.7737640  28.5150270   3.3598970
   6.0209170  29.1582110   3.9280550   3.3156270  22.2080450   5.6551020
   3.8670860  22.3175790   4.8804270   3.8299780  22.5818050   6.3706250
  13.1594960  32.6936670   7.7014290  12.6825520  33.5008860   7.5086900
  12.4756750  32.0415000   7.8540500   4.1627780  28.8586490  10.6898990
   3.2656310  29.0826460  10.9372390   4.1880650  28.9821430   9.7410390
   2.9899000  25.7299810   9.2656360   2.8506770  26.6022610   9.6343760
   2.1080360  25.3872620   9.1204300   4.7879350  31.6721510  11.4741510
   4.7594780  32.0764460  10.6069940   4.6244320  30.7431870  11.3113110
  16.7394170  32.4548610  12.7705680  17.2153890  32.9331500  13.4494760
  17.3601330  32.3866100  12.0451180  16.1427420  29.6461460   9.9305690
  16.2690480  29.4073340   9.0122870  16.1848800  28.8146000  10.4027770
  10.0044160  33.3489460   8.5000500  10.5188830  33.2597470   9.3022930
   9.1613240  33.6949160   8.7928410  15.9951430  21.6993920  10.8955430
  15.3795700  22.2073590  10.3670890  15.6747850  20.7992250  10.8381370
   3.7695940  17.6717290   2.7582300   3.3264090  18.4526830   2.4266820
   4.3280930  17.9947180   3.4653240   8.0565750  20.5385810   8.3617620
   7.5945120  20.7468830   9.1737560   7.6543860  19.7245160   8.0588290
  13.0570260  21.7594760   9.4914280  12.2063850  21.4600510   9.8123350
  12.8972050  22.0036770   8.5798100  10.1519970  23.2596510  11.5913070
  10.4773380  22.4260260  11.2515300  10.9400300  23.7825030  11.7391400
   5.8071840  18.2164620   4.6171900   6.1044170  19.1227450   4.5363920
   6.3557400  17.7283400   4.0031470   6.0009370  23.6936440  11.1523820
   5.9052970  22.7531170  11.0024220   6.8441350  23.9151510  10.7571890
   7.7064960  20.1885080  12.3754340   7.0163280  19.9957280  13.0100430
   8.4497260  20.4719720  12.9078640   9.9827930  24.0283520   5.2108260
   9.2509050  24.5370330   5.5598360   9.5852270  23.2113500   4.9097040
   6.4205320  20.7037720   3.6160750   6.4241380  20.2627670   2.7665290
   7.3156440  21.0255050   3.7232570  10.4453840  19.4817200   4.6231200
  10.4626580  19.9325850   5.4673050  10.1969420  18.5822840   4.8364640
  13.8724590  16.8949380  10.4617580  14.1970360  16.1639040  10.9875560
  13.9081100  16.5763020   9.5598570   6.7213290  24.7639500   5.3626160
   7.0883420  24.2898070   6.1087500   6.5318350  25.6381070   5.7034500
   4.5112660  23.8048140   7.6810370   4.2069730  24.6840120   7.9060730
   5.4659120  23.8647930   7.7167810  13.7982430  27.0074490   4.0703610
  14.5181550  27.5029780   3.6799720  13.5964250  26.3292380   3.4257480
   9.1801230  27.0783550   9.9572610   9.1138540  26.1579220   9.7030200
   8.5506370  27.1758990  10.6717250   3.0831850  27.6789510   1.9156030
   3.6010520  26.8757770   1.8612920   2.6315870  27.6168650   2.7572860
   3.7689510  25.1035120  11.7121280   3.4689650  25.2492300  10.8149100
   4.5400750  24.5440410  11.6194670   9.1117960  29.9004120   9.7076410
   9.1262500  28.9685080   9.4895320   8.4043060  29.9863880  10.3466180
  15.3229170  26.5411460   9.0544990  14.5977360  27.1340240   8.8574380
  15.8504630  26.5335000   8.2558360  10.8528760  28.2671630   2.5528840
  11.2052580  27.6699760   1.8930210   9.9691090  27.9415860   2.7237090
   8.5451860  31.5421690   6.8016910   9.1894080  31.7481070   7.4790330
   8.9081300  30.7810090   6.3487760   9.8183940  29.5454040   5.5194360
  10.4606170  28.8447200   5.6326530  10.3433290  30.3252480   5.3391250
  11.5921560  30.3448940   8.7230420  11.9277800  30.9315630   9.4008340
  10.6721900  30.2141650   8.9528210   7.4210140  30.3940270  11.8918480
   7.1007010  29.6749510  12.4364170   6.7468500  31.0695340  11.9654540
  10.6363740  20.6266430   7.2555280  11.0044560  19.8061640   7.5834850
   9.7761940  20.6868320   7.6710930   7.5965730  23.2806020   7.4793250
   8.0950980  23.7551840   8.1445100   7.7388680  22.3569540   7.6863280
  14.8032590  19.4973980   8.3221640  14.3006190  20.2379380   8.6615450
  15.6189250  19.8857980   8.0058430  13.0954600  24.7407160   1.7683000
  12.1544740  24.7557390   1.9430690  13.4098670  23.9543120   2.2143300
  15.0980180  31.9116010   3.4437260  15.2227600  32.7347180   3.9161070
  15.9645740  31.7006740   3.0961410   2.5697710  34.0047220   3.1154390
   3.3060190  33.4562680   3.3862960   2.9538630  34.8703230   2.9760380
  10.4120620  29.2973160  12.2515380   9.8058780  29.3204760  11.5111130
  10.1074730  28.5656200  12.7882630  11.8420990  33.0253450  10.8624790
  12.7942740  32.9411470  10.8125030  11.6949210  33.6895160  11.5358580
   6.3491740  27.0837740  10.7811540   5.5837410  27.6522740  10.6966210
   6.5307700  26.7913950   9.8879770  13.4915090  28.8143070  11.3386560
  14.2324560  29.1518830  10.8354020  12.7287770  28.9835130  10.7856330
   3.2682690  22.3988440  10.1100580   2.7379150  21.9079390   9.4823920
   3.9370760  22.8272640   9.5758510  12.1660750  26.8657900   9.8741770
  12.5801770  27.0202980  10.7232190  11.2311750  26.9913120  10.0367550
  12.6382920  24.2054060  11.8780920  13.2203690  23.4506380  11.7901400
  12.8144690  24.7361500  11.1012400   3.7554990  19.3650810  10.1897870
   3.6611860  18.7471560   9.4648740   3.1752380  20.0917100   9.9627780
   6.5216430  17.9224050   7.2225260   6.0733730  17.9448310   6.3770810
   5.8881630  17.5243070   7.8195560   6.9275980  26.8178380   7.8437700
   7.3464090  27.6611110   7.6713940   6.0084610  26.9550420   7.6144480
   9.2639880  24.5494560   9.2275540   9.3836090  23.9535700   9.9670380
  10.1233880  24.5864250   8.8076840  11.6027780  25.1031750   7.8038050
  11.0763000  25.6274370   7.2003190  11.9459120  25.7359140   8.4347780
   4.7783400  33.1231390   8.9595430   4.2404490  33.8477450   8.6404130
   5.0317360  32.6461730   8.1692770   6.0308650  21.0915910  10.4851360
   6.6208340  20.7831760  11.1729180   5.2128890  20.6195660  10.6411260
  10.8502080  20.7081720  10.7184380  10.1617600  20.0463260  10.6534370
  11.5708100  20.2619990  11.1632840   7.6345610  34.3582600   9.2182080
   7.5604310  35.2617740   9.5254450   6.7324450  34.0394500   9.1904150
  15.1625290  32.0544780   9.5474640  14.5627280  32.1137340   8.8038560
  15.2919190  31.1149760   9.6771490  16.8643170  27.3960180   2.2320480
  17.2352000  26.6127500   1.8256450  17.5045100  28.0849280   2.0537780
  13.8476930  28.7796760   7.6450800  13.0336770  29.2093920   7.9076590
  14.2551130  29.3915170   7.0319850  15.1967330  23.9184960   9.1720020
  14.9653420  23.6897710   8.2717970  15.4571880  24.8384510   9.1264910
  13.6355400  19.1441390  11.9499720  14.5125580  19.1524790  12.3333720
  13.6476240  18.4072230  11.3392070  15.0818670  22.9970930   2.8387740
  15.6056150  22.5033580   2.2077910  15.6678090  23.1321290   3.5835310
  15.2608390  23.0810800   6.3607290  14.3111100  23.0474340   6.4752280
  15.4421400  23.9910910   6.1257060  14.3471520  16.8299360   7.7700830
  14.9843740  17.4433500   8.1360020  14.4946410  16.8660020   6.8250060
   1.8115550  29.9633270  11.3209700   1.7685180  29.5926180  12.2024160
   1.9426560  30.9010840  11.4611520   5.5121580  31.5192860   6.9219420
   5.2712940  31.7867420   6.0349940   6.4524220  31.6898590   6.9770280
   7.7176000  17.9825550  10.6775930   7.6564890  18.5747380  11.4271340
   8.6576380  17.8751510  10.5326190  10.3550560  17.6395610  10.3168220
  10.9690970  17.9574900   9.6549300  10.9000120  17.1544200  10.9364080
  16.7725740  33.5387240   7.7230060  16.2784020  33.9356110   7.0057190
  16.1639030  32.9136450   8.1167340  11.0958600  16.2027750   6.6437510
  10.2218440  16.5362860   6.4410440  10.9869350  15.7300930   7.4689380
  12.0030580  18.4098620   8.0279230  11.6743940  17.5950380   7.6480960
  12.9512880  18.3668430   7.9044920  14.4565190  34.1810660   5.0016800
  13.9968160  34.9326470   4.6274820  13.8277650  33.4617130   4.9431600
   4.8860910  32.4898900   4.1764930   5.4025930  31.8786260   3.6513190
   5.5358290  32.9927680   4.6675940   7.6256410  33.3807390   5.0033910
   7.9134220  33.1261690   4.1266920   8.1379630  32.8284750   5.5939480
   8.8433420  17.1197590   5.5830420   8.0605210  17.5943090   5.8627180
   8.5496350  16.2152420   5.4743600  13.3954490  17.8220690   3.6279510
  13.8362580  17.7665790   2.7801110  13.1262080  18.7378700   3.6989690
  11.2312620  16.2026790   2.3329520  11.8341990  16.7747000   2.8078040
  10.4905610  16.7666230   2.1103420   7.6928770  34.3023490  12.3702110
   8.6196080  34.0667760  12.4138070   7.6779200  35.1295490  11.8888140
   4.8792380  16.9668240  12.1343990   4.5976650  17.4701840  11.3704810
   5.2612080  16.1689990  11.7686120  11.4807840  16.3821820  12.7124460
  11.3673290  16.7016430  13.6075980  12.2977580  16.7834330  12.4161740
  14.2606330  33.5293350  12.1943150  15.0531650  33.0342580  11.9869110
  14.5539480  34.2083490  12.8018760  10.3865990   5.6270800  58.1733160
  10.3060040   4.7125410  57.9024870   9.9730410   6.1237870  57.4672870
   8.5184030   7.4049820  60.0542430   7.7426130   6.9250260  60.3441000
   9.1696960   6.7255470  59.8798590  12.5391460  11.8110010  58.8341560
  12.0772990  11.0397250  59.1628730  13.3517010  11.8376080  59.3394010
   2.5151120  11.7509720  61.1276210   2.8179160  10.8607460  60.9486430
   3.2594710  12.3079940  60.8998460   8.7654770  14.0968020  58.4545550
   8.1466210  14.5525520  57.8839990   9.6206550  14.2519480  58.0535250
   7.9593020  10.0807010  60.0612590   7.8901300   9.1396950  59.9001720
   8.7212880  10.1708420  60.6335160   8.9898190   2.8877390  60.2881520
   9.3663010   2.0149270  60.1755190   8.8917700   3.2236090  59.3971960
   4.9610930   4.2289390  60.0824140   5.4689150   4.7270360  60.7229160
   5.4924170   3.4524590  59.9063500   9.6318120   8.9807260  55.8477460
   9.0135390   9.4456710  55.2840180  10.1441370   9.6734740  56.2646970
  13.0083790   2.3228210  59.9937400  12.3039360   2.6113100  60.5740510
  13.3695950   3.1328320  59.6336960  16.0770710   1.7683000  60.3846610
  15.1295620   1.8021980  60.5162040  16.4020700   2.5821950  60.7695970
  12.1605310  13.7847470  60.9710060  12.1732470  13.3809760  60.1032320
  11.6080530  14.5594760  60.8671490  13.4550730  10.5063690  56.0600230
  13.3447060   9.5638020  56.1849650  13.4518980  10.8679330  56.9462990
   8.9971010   6.1329010  55.4162720   8.0700290   6.0666390  55.6451190
   9.1495830   7.0709140  55.3017960   8.9840090   2.4046010  52.4129880
   8.0443760   2.5659970  52.4982340   9.3023350   3.1231690  51.8665870
  13.0268300   7.6949310  55.9197970  12.4080720   7.3568860  55.2724270
  13.0092750   7.0509070  56.6277160   4.6027650   6.6593750  58.1982450
   4.1984650   5.9471000  57.7028350   4.6890770   6.3146990  59.0870490
   5.0709350  10.3461310  60.3621660   4.7737640   9.7406780  59.6829440
   6.0209170  10.3838620  60.2511020  11.2033000   6.9336120  52.9270720
  11.6426280   6.0958550  52.7808540  11.9161420   7.5665520  53.0134860
   9.3128380  11.8732190  56.8951960   9.7524290  12.6156520  56.4807350
   9.2515270  12.1158760  57.8190920  11.9798560  14.8601310  54.2514970
  11.8199700  14.5704250  55.1496800  11.8145270  14.0841440  53.7160200
   4.4586940  14.6399840  56.0286590   4.2829420  13.7235380  55.8154390
   3.6042680  14.9987130  56.2684390  11.6824690  12.3688870  52.8112970
  10.9889850  12.3666160  52.1515250  12.4247550  11.9448190  52.3807140
  11.2474620  13.9951580  56.8861460  11.7031570  13.2140960  57.2000080
  11.5867140  14.7058400  57.4302640   3.5610160   4.0207370  56.8094020
   3.3351080   3.8044540  57.7140640   2.7802690   4.4535830  56.4639990
  10.7907920   4.0270740  55.4084670  10.1916810   4.7506540  55.2248290
  11.3387530   3.9647520  54.6261120   9.3972790   2.6634280  57.4387950
   9.7902360   2.9806480  56.6256640   9.7589640   1.7846160  57.5532470
   6.4825470   2.9306310  52.9297980   6.6038290   2.8892790  53.8783800
   6.0973980   3.7930460  52.7744710   5.4946970   5.2407450  52.3281280
   4.9263870   4.7925700  51.7017190   6.2035970   5.6000230  51.7946430
   3.0394450   9.2365640  54.6007690   2.2656710   8.6963260  54.4406410
   3.7689080   8.7172250  54.2625450  13.7982430   8.2331000  60.3934080
  14.5181550   8.7286290  60.0030190  13.5964250   7.5548890  59.7487950
  11.9740760   3.9988610  52.8325630  12.8620380   4.3105840  52.6576970
  11.9445850   3.1260860  52.4406210   3.0831850   8.9046020  58.2386500
   3.6010520   8.1014280  58.1843390   2.6315870   8.8425160  59.0803330
   7.9701350  10.1712300  53.5113800   8.3117050  10.9154530  53.0157120
   7.1414060  10.4843420  53.8738630  14.2455030   5.3100450  52.3005490
  14.1618750   5.7414670  51.4501930  14.9649220   5.7698800  52.7332310
  15.2742280  12.1642710  55.0287620  14.6318440  11.5098330  55.3031340
  14.8872940  12.5697800  54.2528290  10.8528760   9.4928140  58.8759310
  11.2052580   8.8956270  58.2160680   9.9691090   9.1672370  59.0467560
   6.9392040  10.2525830  56.2829720   7.6263170  10.7995040  56.6637310
   6.1524460  10.7966560  56.3179330   6.2419250   7.2571860  55.8955080
   6.6982030   8.0677110  56.1215270   5.8907460   6.9395000  56.7273570
  13.6639660  11.0559170  51.5663970  13.4377240  10.3389610  52.1588610
  13.2735860  10.8071610  50.7285720  13.2455910   8.9731110  53.2278130
  12.9577610   9.4343800  54.0156010  14.0408080   8.5128880  53.4962350
   5.4624310  12.4657230  53.1582100   5.4534410  13.1986920  52.5426610
   4.5422670  12.2188810  53.2509060   8.4483910  12.5285470  51.8207290
   8.5495890  12.3249460  50.8909270   7.5485650  12.2743750  52.0255070
   5.9709800   3.0865830  55.8031190   5.2625950   3.5552170  56.2444800
   6.2554280   2.4287840  56.4376380   7.0902020  15.0471790  56.5154960
   7.3443520  15.0093180  55.5934330   6.1414500  14.9205120  56.5083210
  13.0954600   5.9663670  58.0913470  12.1544740   5.9813900  58.2661160
  13.4098670   5.1799630  58.5373770   3.0736240   7.6483270  51.6517430
   3.8399510   7.5364630  52.2142860   3.1510930   6.9521240  50.9994200
   1.7683000   5.0808340  52.3350320   1.8486590   4.1335850  52.4467720
   2.6602750   5.4115220  52.4410980  15.0980180  13.1372520  59.7667730
  15.2227600  13.9603690  60.2391540  15.9645740  12.9263250  59.4191880
   2.5697710  15.2303730  59.4384860   3.3060190  14.6819190  59.7093430
   2.9538630  16.0959740  59.2990850   5.6800020  14.4034040  51.2610430
   6.4728630  14.6922870  50.8092220   5.1604370  13.9726210  50.5822910
  14.7330190  13.6304170  52.6847170  14.4471700  13.2169310  51.8701350
  14.5349740  14.5591880  52.5647690   6.1977420   9.6237450  51.1252780
   6.0928060   9.0089800  51.8514160   6.0301640   9.1003340  50.3415790
   9.4380150   8.6857480  51.7294770   8.8890250   9.1326780  52.3737510
  10.0599410   8.1806730  52.2532440   5.1055270   7.6448400  53.6260070
   5.5271690   7.4788270  54.4691460   5.2306110   6.8348630  53.1315210
   7.6182910   6.6686010  50.8737170   8.1388570   5.9535030  50.5078320
   8.2651310   7.3071880  51.1737680   4.0014170   3.7181630  50.5718230
   3.8003230   2.8548990  50.9331570   3.8306220   3.6314990  49.6339830
   8.1830940  14.7497620  53.1638910   9.0781730  15.0882590  53.1857670
   8.2148570  14.0277030  52.5363190   1.8227100  10.1224670  51.3925910
   2.2601970  10.6654340  52.0483490   2.3074830   9.2971620  51.4022250
   3.6334820  11.2422710  56.5048140   3.3330360  11.1187680  57.4052050
   3.5272310  10.3831300  56.0963870  16.4026740  11.0219110  51.2074820
  15.5719700  11.0895760  51.6782050  16.5798570  11.9123230  50.9041680
  15.8583200   7.7666590  53.7109020  16.6202110   8.3363240  53.8168710
  15.8737570   7.1993790  54.4817330  16.8643170   8.6216690  58.5550950
  17.2352000   7.8384010  58.1486920  17.5045100   9.3105790  58.3768250
  15.9102370   8.0600960  50.8681540  16.1851210   8.9679840  50.7400760
  15.7213110   7.9963490  51.8043530  15.8067710   5.9969950  55.8610970
  15.4311310   5.2297880  55.4292260  15.0770830   6.3792650  56.3485900
  15.0818670   4.2227440  59.1618210  15.6056150   3.7290090  58.5308380
  15.6678090   4.3577800  59.9065780  14.5718640   3.4800790  55.1010620
  15.0677760   3.2471660  55.8859500  14.3734710   2.6412630  54.6848260
  13.9052980  14.7571870  57.4949540  14.5012050  14.4356440  56.8183960
  14.1631130  14.2843690  58.2862810  14.4565190  15.4067170  61.3247270
  13.9968160  16.1582980  60.9505290  13.8277650  14.6873640  61.2662070
   4.8860910  13.7155410  60.4995400   5.4025930  13.1042770  59.9743660
   5.5358290  14.2184190  60.9906410  15.9273830  15.0705570  55.6906830
  16.1026020  14.3843310  55.0467750  15.2295400  15.5952620  55.2983500
   3.7701480  15.4600410  53.2442140   4.5020300  15.1759690  52.6966030
   4.0295150  15.2213690  54.1341520   2.9316270  11.5765140  53.2488470
   2.3025150  12.0450240  53.7974300   3.0464100  10.7314360  53.6834660
  10.3865990   5.6270800  39.3989670  10.3060040   4.7125410  39.1281380
   9.9730410   6.1237870  38.6929380   8.5184030   7.4049820  41.2798940
   7.7426130   6.9250260  41.5697510   9.1696960   6.7255470  41.1055100
  12.5391460  11.8110010  40.0598070  12.0772990  11.0397250  40.3885240
  13.3517010  11.8376080  40.5650520   2.5151120  11.7509720  42.3532720
   2.8179160  10.8607460  42.1742940   3.2594710  12.3079940  42.1254970
   8.7654770  14.0968020  39.6802060   8.1466210  14.5525520  39.1096500
   9.6206550  14.2519480  39.2791760   7.9593020  10.0807010  41.2869100
   7.8901300   9.1396950  41.1258230   8.7212880  10.1708420  41.8591670
   8.9898190   2.8877390  41.5138030   9.3663010   2.0149270  41.4011700
   8.8917700   3.2236090  40.6228470   4.9610930   4.2289390  41.3080650
   5.4689150   4.7270360  41.9485670   5.4924170   3.4524590  41.1320010
  17.0621860   2.3994580  45.0110000  16.3574030   2.7876290  44.4925110
  17.3279780   3.0944870  45.6130930   9.6318120   8.9807260  37.0733970
   9.0135390   9.4456710  36.5096690  10.1441370   9.6734740  37.4903480
   4.4949880   8.5083130  43.7517570   4.1619260   9.1352050  44.3938640
   4.6716560   9.0345010  42.9719240  13.0083790   2.3228210  41.2193910
  12.3039360   2.6113100  41.7997020  13.3695950   3.1328320  40.8593470
   3.7068980  10.4763930  45.5666750   4.3242980  11.1515010  45.2851200
   2.8462100  10.8851910  45.4754250  14.6246570  11.9403340  43.4821390
  13.9410090  12.6102450  43.4738060  15.1640860  12.1383990  42.7166250
  16.0770710   1.7683000  41.6103120  15.1295620   1.8021980  41.7418550
  16.4020700   2.5821950  41.9952480  12.1605310  13.7847470  42.1966570
  12.1732470  13.3809760  41.3288830  11.6080530  14.5594760  42.0928000
  13.4550730  10.5063690  37.2856740  13.3447060   9.5638020  37.4106160
  13.4518980  10.8679330  38.1719500  11.5590750   8.6877310  43.5249180
  11.9759540   8.4737420  42.6902640  12.2830570   8.9450100  44.0957800
   8.9971010   6.1329010  36.6419230   8.0700290   6.0666390  36.8707700
   9.1495830   7.0709140  36.5274470   8.9840090   2.4046010  33.6386390
   8.0443760   2.5659970  33.7238850   9.3023350   3.1231690  33.0922380
  15.5052850   7.0864530  43.6165420  14.6771480   7.1557620  43.1415550
  16.1003330   7.6718840  43.1481250  13.0268300   7.6949310  37.1454480
  12.4080720   7.3568860  36.4980780  13.0092750   7.0509070  37.8533670
  12.4694860   3.8733850  44.5620290  12.0566040   4.6987560  44.8160280
  11.7370810   3.2878890  44.3696650   4.6027650   6.6593750  39.4238960
   4.1984650   5.9471000  38.9284860   4.6890770   6.3146990  40.3127000
   5.0709350  10.3461310  41.5878170   4.7737640   9.7406780  40.9085950
   6.0209170  10.3838620  41.4767530   3.3156270   3.4336960  43.2038000
   3.8670860   3.5432300  42.4291250   3.8299780   3.8074560  43.9193230
  13.1594960  13.9193180  45.2501270  12.6825520  14.7265370  45.0573880
  12.4756750  13.2671510  45.4027480   4.1627780  10.0843000  48.2385970
   3.2656310  10.3082970  48.4859370   4.1880650  10.2077940  47.2897370
  11.2033000   6.9336120  34.1527230  11.6426280   6.0958550  34.0065050
  11.9161420   7.5665520  34.2391370   2.9899000   6.9556320  46.8143340
   2.8506770   7.8279120  47.1830740   2.1080360   6.6129130  46.6691280
   9.3128380  11.8732190  38.1208470   9.7524290  12.6156520  37.7063860
   9.2515270  12.1158760  39.0447430   4.7879350  12.8978020  49.0228490
   4.7594780  13.3020970  48.1556920   4.6244320  11.9688380  48.8600090
  16.7394170  13.6805120  50.3192660  17.2153890  14.1588010  50.9981740
  17.3601330  13.6122610  49.5938160  16.1427420  10.8717970  47.4792670
  16.2690480  10.6329850  46.5609850  16.1848800  10.0402510  47.9514750
  10.0044160  14.5745970  46.0487480  10.5188830  14.4853980  46.8509910
   9.1613240  14.9205670  46.3415390  11.9798560  14.8601310  35.4771480
  11.8199700  14.5704250  36.3753310  11.8145270  14.0841440  34.9416710
   4.4586940  14.6399840  37.2543100   4.2829420  13.7235380  37.0410900
   3.6042680  14.9987130  37.4940900  11.6824690  12.3688870  34.0369480
  10.9889850  12.3666160  33.3771760  12.4247550  11.9448190  33.6063650
  11.2474620  13.9951580  38.1117970  11.7031570  13.2140960  38.4256590
  11.5867140  14.7058400  38.6559150  15.9951430   2.9250430  48.4442410
  15.3795700   3.4330100  47.9157870  15.6747850   2.0248760  48.3868350
  13.0570260   2.9851270  47.0401260  12.2063850   2.6857020  47.3610330
  12.8972050   3.2293280  46.1285080  10.1519970   4.4853020  49.1400050
  10.4773380   3.6516770  48.8002280  10.9400300   5.0081540  49.2878380
   3.5610160   4.0207370  38.0350530   3.3351080   3.8044540  38.9397150
   2.7802690   4.4535830  37.6896500  10.7907920   4.0270740  36.6341180
  10.1916810   4.7506540  36.4504800  11.3387530   3.9647520  35.8517630
   6.0009370   4.9192950  48.7010800   5.9052970   3.9787680  48.5511200
   6.8441350   5.1408020  48.3058870   9.3972790   2.6634280  38.6644460
   9.7902360   2.9806480  37.8513150   9.7589640   1.7846160  38.7788980
   9.9827930   5.2540030  42.7595240   9.2509050   5.7626840  43.1085340
   9.5852270   4.4370010  42.4584020   6.4825470   2.9306310  34.1554490
   6.6038290   2.8892790  35.1040310   6.0973980   3.7930460  34.0001220
   5.4946970   5.2407450  33.5537790   4.9263870   4.7925700  32.9273700
   6.2035970   5.6000230  33.0202940   6.7213290   5.9896010  42.9113140
   7.0883420   5.5154580  43.6574480   6.5318350   6.8637580  43.2521480
   4.5112660   5.0304650  45.2297350   4.2069730   5.9096630  45.4547710
   5.4659120   5.0904440  45.2654790   3.0394450   9.2365640  35.8264200
   2.2656710   8.6963260  35.6662920   3.7689080   8.7172250  35.4881960
  13.7982430   8.2331000  41.6190590  14.5181550   8.7286290  41.2286700
  13.5964250   7.5548890  40.9744460   9.1801230   8.3040060  47.5059590
   9.1138540   7.3835730  47.2517180   8.5506370   8.4015500  48.2204230
  11.9740760   3.9988610  34.0582140  12.8620380   4.3105840  33.8833480
  11.9445850   3.1260860  33.6662720   3.0831850   8.9046020  39.4643010
   3.6010520   8.1014280  39.4099900   2.6315870   8.8425160  40.3059840
   7.9701350  10.1712300  34.7370310   8.3117050  10.9154530  34.2413630
   7.1414060  10.4843420  35.0995140   3.7689510   6.3291630  49.2608260
   3.4689650   6.4748810  48.3636080   4.5400750   5.7696920  49.1681650
   9.1117960  11.1260630  47.2563390   9.1262500  10.1941590  47.0382300
   8.4043060  11.2120390  47.8953160  14.2455030   5.3100450  33.5262000
  14.1618750   5.7414670  32.6758440  14.9649220   5.7698800  33.9588820
  15.3229170   7.7667970  46.6031970  14.5977360   8.3596750  46.4061360
  15.8504630   7.7591510  45.8045340  15.2742280  12.1642710  36.2544130
  14.6318440  11.5098330  36.5287850  14.8872940  12.5697800  35.4784800
  10.8528760   9.4928140  40.1015820  11.2052580   8.8956270  39.4417190
   9.9691090   9.1672370  40.2724070   6.9392040  10.2525830  37.5086230
   7.6263170  10.7995040  37.8893820   6.1524460  10.7966560  37.5435840
   6.2419250   7.2571860  37.1211590   6.6982030   8.0677110  37.3471780
   5.8907460   6.9395000  37.9530080   8.5451860  12.7678200  44.3503890
   9.1894080  12.9737580  45.0277310   8.9081300  12.0066600  43.8974740
   9.8183940  10.7710550  43.0681340  10.4606170  10.0703710  43.1813510
  10.3433290  11.5508990  42.8878230  13.6639660  11.0559170  32.7920480
  13.4377240  10.3389610  33.3845120  13.2735860  10.8071610  31.9542230
  11.5921560  11.5705450  46.2717400  11.9277800  12.1572140  46.9495320
  10.6721900  11.4398160  46.5015190  13.2455910   8.9731110  34.4534640
  12.9577610   9.4343800  35.2412520  14.0408080   8.5128880  34.7218860
   7.4210140  11.6196780  49.4405460   7.1007010  10.9006020  49.9851150
   6.7468500  12.2951850  49.5141520   5.4624310  12.4657230  34.3838610
   5.4534410  13.1986920  33.7683120   4.5422670  12.2188810  34.4765570
   8.4483910  12.5285470  33.0463800   8.5495890  12.3249460  32.1165780
   7.5485650  12.2743750  33.2511580   5.9709800   3.0865830  37.0287700
   5.2625950   3.5552170  37.4701310   6.2554280   2.4287840  37.6632890
   7.5965730   4.5062530  45.0280230   8.0950980   4.9808350  45.6932080
   7.7388680   3.5826050  45.2350260   7.0902020  15.0471790  37.7411470
   7.3443520  15.0093180  36.8190840   6.1414500  14.9205120  37.7339720
  13.0954600   5.9663670  39.3169980  12.1544740   5.9813900  39.4917670
  13.4098670   5.1799630  39.7630280   3.0736240   7.6483270  32.8773940
   3.8399510   7.5364630  33.4399370   3.1510930   6.9521240  32.2250710
   1.7683000   5.0808340  33.5606830   1.8486590   4.1335850  33.6724230
   2.6602750   5.4115220  33.6667490  15.0980180  13.1372520  40.9924240
  15.2227600  13.9603690  41.4648050  15.9645740  12.9263250  40.6448390
   2.5697710  15.2303730  40.6641370   3.3060190  14.6819190  40.9349940
   2.9538630  16.0959740  40.5247360   5.6800020  14.4034040  32.4866940
   6.4728630  14.6922870  32.0348730   5.1604370  13.9726210  31.8079420
  10.4120620  10.5229670  49.8002360   9.8058780  10.5461270  49.0598110
  10.1074730   9.7912710  50.3369610  11.8420990  14.2509960  48.4111770
  12.7942740  14.1667980  48.3612010  11.6949210  14.9151670  49.0845560
  14.7330190  13.6304170  33.9103680  14.4471700  13.2169310  33.0957860
  14.5349740  14.5591880  33.7904200   6.1977420   9.6237450  32.3509290
   6.0928060   9.0089800  33.0770670   6.0301640   9.1003340  31.5672300
   6.3491740   8.3094250  48.3298520   5.5837410   8.8779250  48.2453190
   6.5307700   8.0170460  47.4366750   9.4380150   8.6857480  32.9551280
   8.8890250   9.1326780  33.5994020  10.0599410   8.1806730  33.4788950
  13.4915090  10.0399580  48.8873540  14.2324560  10.3775340  48.3841000
  12.7287770  10.2091640  48.3343310   5.1055270   7.6448400  34.8516580
   5.5271690   7.4788270  35.6947970   5.2306110   6.8348630  34.3571720
   3.2682690   3.6244950  47.6587560   2.7379150   3.1335900  47.0310900
   3.9370760   4.0529150  47.1245490   7.6182910   6.6686010  32.0993680
   8.1388570   5.9535030  31.7334830   8.2651310   7.3071880  32.3994190
  12.1660750   8.0914410  47.4228750  12.5801770   8.2459490  48.2719170
  11.2311750   8.2169630  47.5854530  12.6382920   5.4310570  49.4267900
  13.2203690   4.6762890  49.3388380  12.8144690   5.9618010  48.6499380
   6.9275980   8.0434890  45.3924680   7.3464090   8.8867620  45.2200920
   6.0084610   8.1806930  45.1631460   9.2639880   5.7751070  46.7762520
   9.3836090   5.1792210  47.5157360  10.1233880   5.8120760  46.3563820
  11.6027780   6.3288260  45.3525030  11.0763000   6.8530880  44.7490170
  11.9459120   6.9615650  45.9834760   4.0014170   3.7181630  31.7974740
   3.8003230   2.8548990  32.1588080   3.8306220   3.6314990  30.8596340
   4.7783400  14.3487900  46.5082410   4.2404490  15.0733960  46.1891110
   5.0317360  13.8718240  45.7179750   6.0308650   2.3172420  48.0338340
   6.6208340   2.0088270  48.7216160   5.2128890   1.8452170  48.1898240
   7.6345610  15.5839110  46.7669060   7.5604310  16.4874250  47.0741430
   6.7324450  15.2651010  46.7391130   8.1830940  14.7497620  34.3895420
   9.0781730  15.0882590  34.4114180   8.2148570  14.0277030  33.7619700
   1.8227100  10.1224670  32.6182420   2.2601970  10.6654340  33.2740000
   2.3074830   9.2971620  32.6278760   3.6334820  11.2422710  37.7304650
   3.3330360  11.1187680  38.6308560   3.5272310  10.3831300  37.3220380
  15.1625290  13.2801290  47.0961620  14.5627280  13.3393850  46.3525540
  15.2919190  12.3406270  47.2258470  16.4026740  11.0219110  32.4331330
  15.5719700  11.0895760  32.9038560  16.5798570  11.9123230  32.1298190
  15.8583200   7.7666590  34.9365530  16.6202110   8.3363240  35.0425220
  15.8737570   7.1993790  35.7073840  16.8643170   8.6216690  39.7807460
  17.2352000   7.8384010  39.3743430  17.5045100   9.3105790  39.6024760
  13.8476930  10.0053270  45.1937780  13.0336770  10.4350430  45.4563570
  14.2551130  10.6171680  44.5806830  15.9102370   8.0600960  32.0938050
  16.1851210   8.9679840  31.9657270  15.7213110   7.9963490  33.0300040
  15.8067710   5.9969950  37.0867480  15.4311310   5.2297880  36.6548770
  15.0770830   6.3792650  37.5742410  15.1967330   5.1441470  46.7207000
  14.9653420   4.9154220  45.8204950  15.4571880   6.0641020  46.6751890
  15.0818670   4.2227440  40.3874720  15.6056150   3.7290090  39.7564890
  15.6678090   4.3577800  41.1322290  15.2608390   4.3067310  43.9094270
  14.3111100   4.2730850  44.0239260  15.4421400   5.2167420  43.6744040
  14.5718640   3.4800790  36.3267130  15.0677760   3.2471660  37.1116010
  14.3734710   2.6412630  35.9104770  13.9052980  14.7571870  38.7206050
  14.5012050  14.4356440  38.0440470  14.1631130  14.2843690  39.5119320
   1.8115550  11.1889780  48.8696680   1.7685180  10.8182690  49.7511140
   1.9426560  12.1267350  49.0098500   5.5121580  12.7449370  44.4706400
   5.2712940  13.0123930  43.5836920   6.4524220  12.9155100  44.5257260
  16.7725740  14.7643750  45.2717040  16.2784020  15.1612620  44.5544170
  16.1639030  14.1392960  45.6654320  14.4565190  15.4067170  42.5503780
  13.9968160  16.1582980  42.1761800  13.8277650  14.6873640  42.4918580
   4.8860910  13.7155410  41.7251910   5.4025930  13.1042770  41.2000170
   5.5358290  14.2184190  42.2162920   7.6256410  14.6063900  42.5520890
   7.9134220  14.3518200  41.6753900   8.1379630  14.0541260  43.1426460
   7.6928770  15.5280000  49.9189090   8.6196080  15.2924270  49.9625050
   7.6779200  16.3552000  49.4375120  15.9273830  15.0705570  36.9163340
  16.1026020  14.3843310  36.2724260  15.2295400  15.5952620  36.5240010
   3.7701480  15.4600410  34.4698650   4.5020300  15.1759690  33.9222540
   4.0295150  15.2213690  35.3598030   2.9316270  11.5765140  34.4744980
   2.3025150  12.0450240  35.0230810   3.0464100  10.7314360  34.9091170
  14.2606330  14.7549860  49.7430130  15.0531650  14.2599090  49.5356090
  14.5539480  15.4340000  50.3505740  10.3865990   5.6270800  20.6246180
  10.3060040   4.7125410  20.3537890   9.9730410   6.1237870  19.9185890
   8.5184030   7.4049820  22.5055450   7.7426130   6.9250260  22.7954020
   9.1696960   6.7255470  22.3311610  12.5391460  11.8110010  21.2854580
  12.0772990  11.0397250  21.6141750  13.3517010  11.8376080  21.7907030
   2.5151120  11.7509720  23.5789230   2.8179160  10.8607460  23.3999450
   3.2594710  12.3079940  23.3511480   8.7654770  14.0968020  20.9058570
   8.1466210  14.5525520  20.3353010   9.6206550  14.2519480  20.5048270
   7.9593020  10.0807010  22.5125610   7.8901300   9.1396950  22.3514740
   8.7212880  10.1708420  23.0848180   8.9898190   2.8877390  22.7394540
   9.3663010   2.0149270  22.6268210   8.8917700   3.2236090  21.8484980
   4.9610930   4.2289390  22.5337160   5.4689150   4.7270360  23.1742180
   5.4924170   3.4524590  22.3576520  17.0621860   2.3994580  26.2366510
  16.3574030   2.7876290  25.7181620  17.3279780   3.0944870  26.8387440
   9.6318120   8.9807260  18.2990480   9.0135390   9.4456710  17.7353200
  10.1441370   9.6734740  18.7159990   4.4949880   8.5083130  24.9774080
   4.1619260   9.1352050  25.6195150   4.6716560   9.0345010  24.1975750
  13.0083790   2.3228210  22.4450420  12.3039360   2.6113100  23.0253530
  13.3695950   3.1328320  22.0849980   3.7068980  10.4763930  26.7923260
   4.3242980  11.1515010  26.5107710   2.8462100  10.8851910  26.7010760
  14.6246570  11.9403340  24.7077900  13.9410090  12.6102450  24.6994570
  15.1640860  12.1383990  23.9422760  16.0770710   1.7683000  22.8359630
  15.1295620   1.8021980  22.9675060  16.4020700   2.5821950  23.2208990
  12.1605310  13.7847470  23.4223080  12.1732470  13.3809760  22.5545340
  11.6080530  14.5594760  23.3184510  13.4550730  10.5063690  18.5113250
  13.3447060   9.5638020  18.6362670  13.4518980  10.8679330  19.3976010
  11.5590750   8.6877310  24.7505690  11.9759540   8.4737420  23.9159150
  12.2830570   8.9450100  25.3214310   8.9971010   6.1329010  17.8675740
   8.0700290   6.0666390  18.0964210   9.1495830   7.0709140  17.7530980
   8.9840090   2.4046010  14.8642900   8.0443760   2.5659970  14.9495360
   9.3023350   3.1231690  14.3178890  15.5052850   7.0864530  24.8421930
  14.6771480   7.1557620  24.3672060  16.1003330   7.6718840  24.3737760
  13.0268300   7.6949310  18.3710990  12.4080720   7.3568860  17.7237290
  13.0092750   7.0509070  19.0790180  12.4694860   3.8733850  25.7876800
  12.0566040   4.6987560  26.0416790  11.7370810   3.2878890  25.5953160
   4.6027650   6.6593750  20.6495470   4.1984650   5.9471000  20.1541370
   4.6890770   6.3146990  21.5383510   5.0709350  10.3461310  22.8134680
   4.7737640   9.7406780  22.1342460   6.0209170  10.3838620  22.7024040
   3.3156270   3.4336960  24.4294510   3.8670860   3.5432300  23.6547760
   3.8299780   3.8074560  25.1449740  13.1594960  13.9193180  26.4757780
  12.6825520  14.7265370  26.2830390  12.4756750  13.2671510  26.6283990
   4.1627780  10.0843000  29.4642480   3.2656310  10.3082970  29.7115880
   4.1880650  10.2077940  28.5153880  11.2033000   6.9336120  15.3783740
  11.6426280   6.0958550  15.2321560  11.9161420   7.5665520  15.4647880
   2.9899000   6.9556320  28.0399850   2.8506770   7.8279120  28.4087250
   2.1080360   6.6129130  27.8947790   9.3128380  11.8732190  19.3464980
   9.7524290  12.6156520  18.9320370   9.2515270  12.1158760  20.2703940
   4.7879350  12.8978020  30.2485000   4.7594780  13.3020970  29.3813430
   4.6244320  11.9688380  30.0856600  16.7394170  13.6805120  31.5449170
  17.2153890  14.1588010  32.2238250  17.3601330  13.6122610  30.8194670
  16.1427420  10.8717970  28.7049180  16.2690480  10.6329850  27.7866360
  16.1848800  10.0402510  29.1771260  10.0044160  14.5745970  27.2743990
  10.5188830  14.4853980  28.0766420   9.1613240  14.9205670  27.5671900
  11.9798560  14.8601310  16.7027990  11.8199700  14.5704250  17.6009820
  11.8145270  14.0841440  16.1673220   4.4586940  14.6399840  18.4799610
   4.2829420  13.7235380  18.2667410   3.6042680  14.9987130  18.7197410
  11.6824690  12.3688870  15.2625990  10.9889850  12.3666160  14.6028270
  12.4247550  11.9448190  14.8320160  11.2474620  13.9951580  19.3374480
  11.7031570  13.2140960  19.6513100  11.5867140  14.7058400  19.8815660
  15.9951430   2.9250430  29.6698920  15.3795700   3.4330100  29.1414380
  15.6747850   2.0248760  29.6124860  13.0570260   2.9851270  28.2657770
  12.2063850   2.6857020  28.5866840  12.8972050   3.2293280  27.3541590
  10.1519970   4.4853020  30.3656560  10.4773380   3.6516770  30.0258790
  10.9400300   5.0081540  30.5134890   3.5610160   4.0207370  19.2607040
   3.3351080   3.8044540  20.1653660   2.7802690   4.4535830  18.9153010
  10.7907920   4.0270740  17.8597690  10.1916810   4.7506540  17.6761310
  11.3387530   3.9647520  17.0774140   6.0009370   4.9192950  29.9267310
   5.9052970   3.9787680  29.7767710   6.8441350   5.1408020  29.5315380
   9.3972790   2.6634280  19.8900970   9.7902360   2.9806480  19.0769660
   9.7589640   1.7846160  20.0045490   9.9827930   5.2540030  23.9851750
   9.2509050   5.7626840  24.3341850   9.5852270   4.4370010  23.6840530
   6.4825470   2.9306310  15.3811000   6.6038290   2.8892790  16.3296820
   6.0973980   3.7930460  15.2257730   5.4946970   5.2407450  14.7794300
   4.9263870   4.7925700  14.1530210   6.2035970   5.6000230  14.2459450
   6.7213290   5.9896010  24.1369650   7.0883420   5.5154580  24.8830990
   6.5318350   6.8637580  24.4777990   4.5112660   5.0304650  26.4553860
   4.2069730   5.9096630  26.6804220   5.4659120   5.0904440  26.4911300
   3.0394450   9.2365640  17.0520710   2.2656710   8.6963260  16.8919430
   3.7689080   8.7172250  16.7138470  13.7982430   8.2331000  22.8447100
  14.5181550   8.7286290  22.4543210  13.5964250   7.5548890  22.2000970
   9.1801230   8.3040060  28.7316100   9.1138540   7.3835730  28.4773690
   8.5506370   8.4015500  29.4460740  11.9740760   3.9988610  15.2838650
  12.8620380   4.3105840  15.1089990  11.9445850   3.1260860  14.8919230
   3.0831850   8.9046020  20.6899520   3.6010520   8.1014280  20.6356410
   2.6315870   8.8425160  21.5316350   7.9701350  10.1712300  15.9626820
   8.3117050  10.9154530  15.4670140   7.1414060  10.4843420  16.3251650
   3.7689510   6.3291630  30.4864770   3.4689650   6.4748810  29.5892590
   4.5400750   5.7696920  30.3938160   9.1117960  11.1260630  28.4819900
   9.1262500  10.1941590  28.2638810   8.4043060  11.2120390  29.1209670
  14.2455030   5.3100450  14.7518510  14.1618750   5.7414670  13.9014950
  14.9649220   5.7698800  15.1845330  15.3229170   7.7667970  27.8288480
  14.5977360   8.3596750  27.6317870  15.8504630   7.7591510  27.0301850
  15.2742280  12.1642710  17.4800640  14.6318440  11.5098330  17.7544360
  14.8872940  12.5697800  16.7041310  10.8528760   9.4928140  21.3272330
  11.2052580   8.8956270  20.6673700   9.9691090   9.1672370  21.4980580
   6.9392040  10.2525830  18.7342740   7.6263170  10.7995040  19.1150330
   6.1524460  10.7966560  18.7692350   6.2419250   7.2571860  18.3468100
   6.6982030   8.0677110  18.5728290   5.8907460   6.9395000  19.1786590
   8.5451860  12.7678200  25.5760400   9.1894080  12.9737580  26.2533820
   8.9081300  12.0066600  25.1231250   9.8183940  10.7710550  24.2937850
  10.4606170  10.0703710  24.4070020  10.3433290  11.5508990  24.1134740
  13.6639660  11.0559170  14.0176990  13.4377240  10.3389610  14.6101630
  13.2735860  10.8071610  13.1798740  11.5921560  11.5705450  27.4973910
  11.9277800  12.1572140  28.1751830  10.6721900  11.4398160  27.7271700
  13.2455910   8.9731110  15.6791150  12.9577610   9.4343800  16.4669030
  14.0408080   8.5128880  15.9475370   7.4210140  11.6196780  30.6661970
   7.1007010  10.9006020  31.2107660   6.7468500  12.2951850  30.7398030
   5.4624310  12.4657230  15.6095120   5.4534410  13.1986920  14.9939630
   4.5422670  12.2188810  15.7022080   8.4483910  12.5285470  14.2720310
   8.5495890  12.3249460  13.3422290   7.5485650  12.2743750  14.4768090
   5.9709800   3.0865830  18.2544210   5.2625950   3.5552170  18.6957820
   6.2554280   2.4287840  18.8889400   7.5965730   4.5062530  26.2536740
   8.0950980   4.9808350  26.9188590   7.7388680   3.5826050  26.4606770
   7.0902020  15.0471790  18.9667980   7.3443520  15.0093180  18.0447350
   6.1414500  14.9205120  18.9596230  13.0954600   5.9663670  20.5426490
  12.1544740   5.9813900  20.7174180  13.4098670   5.1799630  20.9886790
   3.0736240   7.6483270  14.1030450   3.8399510   7.5364630  14.6655880
   3.1510930   6.9521240  13.4507220   1.7683000   5.0808340  14.7863340
   1.8486590   4.1335850  14.8980740   2.6602750   5.4115220  14.8924000
  15.0980180  13.1372520  22.2180750  15.2227600  13.9603690  22.6904560
  15.9645740  12.9263250  21.8704900   2.5697710  15.2303730  21.8897880
   3.3060190  14.6819190  22.1606450   2.9538630  16.0959740  21.7503870
   5.6800020  14.4034040  13.7123450   6.4728630  14.6922870  13.2605240
   5.1604370  13.9726210  13.0335930  10.4120620  10.5229670  31.0258870
   9.8058780  10.5461270  30.2854620  10.1074730   9.7912710  31.5626120
  11.8420990  14.2509960  29.6368280  12.7942740  14.1667980  29.5868520
  11.6949210  14.9151670  30.3102070  14.7330190  13.6304170  15.1360190
  14.4471700  13.2169310  14.3214370  14.5349740  14.5591880  15.0160710
   6.1977420   9.6237450  13.5765800   6.0928060   9.0089800  14.3027180
   6.0301640   9.1003340  12.7928810   6.3491740   8.3094250  29.5555030
   5.5837410   8.8779250  29.4709700   6.5307700   8.0170460  28.6623260
   9.4380150   8.6857480  14.1807790   8.8890250   9.1326780  14.8250530
  10.0599410   8.1806730  14.7045460  13.4915090  10.0399580  30.1130050
  14.2324560  10.3775340  29.6097510  12.7287770  10.2091640  29.5599820
   5.1055270   7.6448400  16.0773090   5.5271690   7.4788270  16.9204480
   5.2306110   6.8348630  15.5828230   3.2682690   3.6244950  28.8844070
   2.7379150   3.1335900  28.2567410   3.9370760   4.0529150  28.3502000
   7.6182910   6.6686010  13.3250190   8.1388570   5.9535030  12.9591340
   8.2651310   7.3071880  13.6250700  12.1660750   8.0914410  28.6485260
  12.5801770   8.2459490  29.4975680  11.2311750   8.2169630  28.8111040
  12.6382920   5.4310570  30.6524410  13.2203690   4.6762890  30.5644890
  12.8144690   5.9618010  29.8755890   6.9275980   8.0434890  26.6181190
   7.3464090   8.8867620  26.4457430   6.0084610   8.1806930  26.3887970
   9.2639880   5.7751070  28.0019030   9.3836090   5.1792210  28.7413870
  10.1233880   5.8120760  27.5820330  11.6027780   6.3288260  26.5781540
  11.0763000   6.8530880  25.9746680  11.9459120   6.9615650  27.2091270
   4.0014170   3.7181630  13.0231250   3.8003230   2.8548990  13.3844590
   3.8306220   3.6314990  12.0852850   4.7783400  14.3487900  27.7338920
   4.2404490  15.0733960  27.4147620   5.0317360  13.8718240  26.9436260
   6.0308650   2.3172420  29.2594850   6.6208340   2.0088270  29.9472670
   5.2128890   1.8452170  29.4154750   7.6345610  15.5839110  27.9925570
   7.5604310  16.4874250  28.2997940   6.7324450  15.2651010  27.9647640
   8.1830940  14.7497620  15.6151930   9.0781730  15.0882590  15.6370690
   8.2148570  14.0277030  14.9876210   1.8227100  10.1224670  13.8438930
   2.2601970  10.6654340  14.4996510   2.3074830   9.2971620  13.8535270
   3.6334820  11.2422710  18.9561160   3.3330360  11.1187680  19.8565070
   3.5272310  10.3831300  18.5476890  15.1625290  13.2801290  28.3218130
  14.5627280  13.3393850  27.5782050  15.2919190  12.3406270  28.4514980
  16.4026740  11.0219110  13.6587840  15.5719700  11.0895760  14.1295070
  16.5798570  11.9123230  13.3554700  15.8583200   7.7666590  16.1622040
  16.6202110   8.3363240  16.2681730  15.8737570   7.1993790  16.9330350
  16.8643170   8.6216690  21.0063970  17.2352000   7.8384010  20.5999940
  17.5045100   9.3105790  20.8281270  13.8476930  10.0053270  26.4194290
  13.0336770  10.4350430  26.6820080  14.2551130  10.6171680  25.8063340
  15.9102370   8.0600960  13.3194560  16.1851210   8.9679840  13.1913780
  15.7213110   7.9963490  14.2556550  15.8067710   5.9969950  18.3123990
  15.4311310   5.2297880  17.8805280  15.0770830   6.3792650  18.7998920
  15.1967330   5.1441470  27.9463510  14.9653420   4.9154220  27.0461460
  15.4571880   6.0641020  27.9008400  15.0818670   4.2227440  21.6131230
  15.6056150   3.7290090  20.9821400  15.6678090   4.3577800  22.3578800
  15.2608390   4.3067310  25.1350780  14.3111100   4.2730850  25.2495770
  15.4421400   5.2167420  24.9000550  14.5718640   3.4800790  17.5523640
  15.0677760   3.2471660  18.3372520  14.3734710   2.6412630  17.1361280
  13.9052980  14.7571870  19.9462560  14.5012050  14.4356440  19.2696980
  14.1631130  14.2843690  20.7375830   1.8115550  11.1889780  30.0953190
   1.7685180  10.8182690  30.9767650   1.9426560  12.1267350  30.2355010
   5.5121580  12.7449370  25.6962910   5.2712940  13.0123930  24.8093430
   6.4524220  12.9155100  25.7513770  16.7725740  14.7643750  26.4973550
  16.2784020  15.1612620  25.7800680  16.1639030  14.1392960  26.8910830
  14.4565190  15.4067170  23.7760290  13.9968160  16.1582980  23.4018310
  13.8277650  14.6873640  23.7175090   4.8860910  13.7155410  22.9508420
   5.4025930  13.1042770  22.4256680   5.5358290  14.2184190  23.4419430
   7.6256410  14.6063900  23.7777400   7.9134220  14.3518200  22.9010410
   8.1379630  14.0541260  24.3682970   7.6928770  15.5280000  31.1445600
   8.6196080  15.2924270  31.1881560   7.6779200  16.3552000  30.6631630
  15.9273830  15.0705570  18.1419850  16.1026020  14.3843310  17.4980770
  15.2295400  15.5952620  17.7496520   3.7701480  15.4600410  15.6955160
   4.5020300  15.1759690  15.1479050   4.0295150  15.2213690  16.5854540
   2.9316270  11.5765140  15.7001490   2.3025150  12.0450240  16.2487320
   3.0464100  10.7314360  16.1347680  14.2606330  14.7549860  30.9686640
  15.0531650  14.2599090  30.7612600  14.5539480  15.4340000  31.5762250
   8.5184030   7.4049820   3.7311960   7.7426130   6.9250260   4.0210530
   9.1696960   6.7255470   3.5568120  12.5391460  11.8110010   2.5111090
  12.0772990  11.0397250   2.8398260  13.3517010  11.8376080   3.0163540
   2.5151120  11.7509720   4.8045740   2.8179160  10.8607460   4.6255960
   3.2594710  12.3079940   4.5767990   7.9593020  10.0807010   3.7382120
   7.8901300   9.1396950   3.5771250   8.7212880  10.1708420   4.3104690
   8.9898190   2.8877390   3.9651050   9.3663010   2.0149270   3.8524720
   8.8917700   3.2236090   3.0741490   4.9610930   4.2289390   3.7593670
   5.4689150   4.7270360   4.3998690   5.4924170   3.4524590   3.5833030
  17.0621860   2.3994580   7.4623020  16.3574030   2.7876290   6.9438130
  17.3279780   3.0944870   8.0643950   4.4949880   8.5083130   6.2030590
   4.1619260   9.1352050   6.8451660   4.6716560   9.0345010   5.4232260
  13.0083790   2.3228210   3.6706930  12.3039360   2.6113100   4.2510040
  13.3695950   3.1328320   3.3106490   3.7068980  10.4763930   8.0179770
   4.3242980  11.1515010   7.7364220   2.8462100  10.8851910   7.9267270
  14.6246570  11.9403340   5.9334410  13.9410090  12.6102450   5.9251080
  15.1640860  12.1383990   5.1679270  16.0770710   1.7683000   4.0616140
  15.1295620   1.8021980   4.1931570  16.4020700   2.5821950   4.4465500
  12.1605310  13.7847470   4.6479590  12.1732470  13.3809760   3.7801850
  11.6080530  14.5594760   4.5441020  11.5590750   8.6877310   5.9762200
  11.9759540   8.4737420   5.1415660  12.2830570   8.9450100   6.5470820
  15.5052850   7.0864530   6.0678440  14.6771480   7.1557620   5.5928570
  16.1003330   7.6718840   5.5994270  12.4694860   3.8733850   7.0133310
  12.0566040   4.6987560   7.2673300  11.7370810   3.2878890   6.8209670
   5.0709350  10.3461310   4.0391190   4.7737640   9.7406780   3.3598970
   6.0209170  10.3838620   3.9280550   3.3156270   3.4336960   5.6551020
   3.8670860   3.5432300   4.8804270   3.8299780   3.8074560   6.3706250
  13.1594960  13.9193180   7.7014290  12.6825520  14.7265370   7.5086900
  12.4756750  13.2671510   7.8540500   4.1627780  10.0843000  10.6898990
   3.2656310  10.3082970  10.9372390   4.1880650  10.2077940   9.7410390
   2.9899000   6.9556320   9.2656360   2.8506770   7.8279120   9.6343760
   2.1080360   6.6129130   9.1204300   4.7879350  12.8978020  11.4741510
   4.7594780  13.3020970  10.6069940   4.6244320  11.9688380  11.3113110
  16.7394170  13.6805120  12.7705680  17.2153890  14.1588010  13.4494760
  17.3601330  13.6122610  12.0451180  16.1427420  10.8717970   9.9305690
  16.2690480  10.6329850   9.0122870  16.1848800  10.0402510  10.4027770
  10.0044160  14.5745970   8.5000500  10.5188830  14.4853980   9.3022930
   9.1613240  14.9205670   8.7928410  15.9951430   2.9250430  10.8955430
  15.3795700   3.4330100  10.3670890  15.6747850   2.0248760  10.8381370
  13.0570260   2.9851270   9.4914280  12.2063850   2.6857020   9.8123350
  12.8972050   3.2293280   8.5798100  10.1519970   4.4853020  11.5913070
  10.4773380   3.6516770  11.2515300  10.9400300   5.0081540  11.7391400
   6.0009370   4.9192950  11.1523820   5.9052970   3.9787680  11.0024220
   6.8441350   5.1408020  10.7571890   9.9827930   5.2540030   5.2108260
   9.2509050   5.7626840   5.5598360   9.5852270   4.4370010   4.9097040
   6.7213290   5.9896010   5.3626160   7.0883420   5.5154580   6.1087500
   6.5318350   6.8637580   5.7034500   4.5112660   5.0304650   7.6810370
   4.2069730   5.9096630   7.9060730   5.4659120   5.0904440   7.7167810
  13.7982430   8.2331000   4.0703610  14.5181550   8.7286290   3.6799720
  13.5964250   7.5548890   3.4257480   9.1801230   8.3040060   9.9572610
   9.1138540   7.3835730   9.7030200   8.5506370   8.4015500  10.6717250
   3.0831850   8.9046020   1.9156030   3.6010520   8.1014280   1.8612920
   2.6315870   8.8425160   2.7572860   3.7689510   6.3291630  11.7121280
   3.4689650   6.4748810  10.8149100   4.5400750   5.7696920  11.6194670
   9.1117960  11.1260630   9.7076410   9.1262500  10.1941590   9.4895320
   8.4043060  11.2120390  10.3466180  15.3229170   7.7667970   9.0544990
  14.5977360   8.3596750   8.8574380  15.8504630   7.7591510   8.2558360
  10.8528760   9.4928140   2.5528840  11.2052580   8.8956270   1.8930210
   9.9691090   9.1672370   2.7237090   8.5451860  12.7678200   6.8016910
   9.1894080  12.9737580   7.4790330   8.9081300  12.0066600   6.3487760
   9.8183940  10.7710550   5.5194360  10.4606170  10.0703710   5.6326530
  10.3433290  11.5508990   5.3391250  11.5921560  11.5705450   8.7230420
  11.9277800  12.1572140   9.4008340  10.6721900  11.4398160   8.9528210
   7.4210140  11.6196780  11.8918480   7.1007010  10.9006020  12.4364170
   6.7468500  12.2951850  11.9654540   7.5965730   4.5062530   7.4793250
   8.0950980   4.9808350   8.1445100   7.7388680   3.5826050   7.6863280
  13.0954600   5.9663670   1.7683000  12.1544740   5.9813900   1.9430690
  13.4098670   5.1799630   2.2143300  15.0980180  13.1372520   3.4437260
  15.2227600  13.9603690   3.9161070  15.9645740  12.9263250   3.0961410
   2.5697710  15.2303730   3.1154390   3.3060190  14.6819190   3.3862960
   2.9538630  16.0959740   2.9760380  10.4120620  10.5229670  12.2515380
   9.8058780  10.5461270  11.5111130  10.1074730   9.7912710  12.7882630
  11.8420990  14.2509960  10.8624790  12.7942740  14.1667980  10.8125030
  11.6949210  14.9151670  11.5358580   6.3491740   8.3094250  10.7811540
   5.5837410   8.8779250  10.6966210   6.5307700   8.0170460   9.8879770
  13.4915090  10.0399580  11.3386560  14.2324560  10.3775340  10.8354020
  12.7287770  10.2091640  10.7856330   3.2682690   3.6244950  10.1100580
   2.7379150   3.1335900   9.4823920   3.9370760   4.0529150   9.5758510
  12.1660750   8.0914410   9.8741770  12.5801770   8.2459490  10.7232190
  11.2311750   8.2169630  10.0367550  12.6382920   5.4310570  11.8780920
  13.2203690   4.6762890  11.7901400  12.8144690   5.9618010  11.1012400
   6.9275980   8.0434890   7.8437700   7.3464090   8.8867620   7.6713940
   6.0084610   8.1806930   7.6144480   9.2639880   5.7751070   9.2275540
   9.3836090   5.1792210   9.9670380  10.1233880   5.8120760   8.8076840
  11.6027780   6.3288260   7.8038050  11.0763000   6.8530880   7.2003190
  11.9459120   6.9615650   8.4347780   4.7783400  14.3487900   8.9595430
   4.2404490  15.0733960   8.6404130   5.0317360  13.8718240   8.1692770
   6.0308650   2.3172420  10.4851360   6.6208340   2.0088270  11.1729180
   5.2128890   1.8452170  10.6411260   7.6345610  15.5839110   9.2182080
   7.5604310  16.4874250   9.5254450   6.7324450  15.2651010   9.1904150
  15.1625290  13.2801290   9.5474640  14.5627280  13.3393850   8.8038560
  15.2919190  12.3406270   9.6771490  16.8643170   8.6216690   2.2320480
  17.2352000   7.8384010   1.8256450  17.5045100   9.3105790   2.0537780
  13.8476930  10.0053270   7.6450800  13.0336770  10.4350430   7.9076590
  14.2551130  10.6171680   7.0319850  15.1967330   5.1441470   9.1720020
  14.9653420   4.9154220   8.2717970  15.4571880   6.0641020   9.1264910
  15.0818670   4.2227440   2.8387740  15.6056150   3.7290090   2.2077910
  15.6678090   4.3577800   3.5835310  15.2608390   4.3067310   6.3607290
  14.3111100   4.2730850   6.4752280  15.4421400   5.2167420   6.1257060
   1.8115550  11.1889780  11.3209700   1.7685180  10.8182690  12.2024160
   1.9426560  12.1267350  11.4611520   5.5121580  12.7449370   6.9219420
   5.2712940  13.0123930   6.0349940   6.4524220  12.9155100   6.9770280
  16.7725740  14.7643750   7.7230060  16.2784020  15.1612620   7.0057190
  16.1639030  14.1392960   8.1167340  14.4565190  15.4067170   5.0016800
  13.9968160  16.1582980   4.6274820  13.8277650  14.6873640   4.9431600
   4.8860910  13.7155410   4.1764930   5.4025930  13.1042770   3.6513190
   5.5358290  14.2184190   4.6675940   7.6256410  14.6063900   5.0033910
   7.9134220  14.3518200   4.1266920   8.1379630  14.0541260   5.5939480
   7.6928770  15.5280000  12.3702110   8.6196080  15.2924270  12.4138070
   7.6779200  16.3552000  11.8888140  14.2606330  14.7549860  12.1943150
  15.0531650  14.2599090  11.9869110  14.5539480  15.4340000  12.8018760
  71.5464200  69.1472640  63.0930270  90.0000000  90.0000000  90.0000000
