;
;   File sys_pyronly.top  was generated
;   By user: sarthakmohanty (501)
;   On host:Sarthaks-MacBook-Pro.local 
;   At date:Thu. October  4 11:32:54 2026 
;
;   This is a standalone topology file
;
;   Created by:
;   ParmEd:       -, VERSION4.3.1 
;   Executable:   -
;   Library dir:  /Users/sarthakmohanty/.claude-science/conda/envs/md-local/share/gromacs/top
;   Command line:
;     -
;

[ defaults ]
; nbfunc        comb-rule       gen-pairs       fudgeLJ fudgeQQ
1               2               yes             0.5          0.83333333  

[ atomtypes ]
; name    at.num    mass    charge ptype  sigma      epsilon
ca             6  12.010000  0.00000000  A     0.33152123      0.4133792
ha             1   1.008000  0.00000000  A     0.26254785      0.0673624
OW             8  16.000000  0.00000000  A     0.31507524       0.635968
HW             1   1.008000  0.00000000  A              0              0


[ moleculetype ]
; Name            nrexcl
PYR          3

[ atoms ]
;   nr       type  resnr residue  atom   cgnr    charge       mass  typeB    chargeB      massB
; residue    1 PYR rtp PYR q 0.0
    1         ca      1    PYR      C      1 -0.34102200  12.010000   ; qtot -0.341022
    2         ca      1    PYR     C1      2 -0.21414500  12.010000   ; qtot -0.555167
    3         ca      1    PYR     C2      3 -0.00205600  12.010000   ; qtot -0.557223
    4         ca      1    PYR     C3      4 -0.29620500  12.010000   ; qtot -0.853428
    5         ca      1    PYR     C4      5 -0.29620500  12.010000   ; qtot -1.149633
    6         ca      1    PYR     C5      6 -0.00205600  12.010000   ; qtot -1.151689
    7         ca      1    PYR     C6      7 -0.21414500  12.010000   ; qtot -1.365834
    8         ca      1    PYR     C7      8 -0.34102200  12.010000   ; qtot -1.706856
    9         ca      1    PYR     C8      9 -0.21414500  12.010000   ; qtot -1.921001
   10         ca      1    PYR     C9     10 -0.00205600  12.010000   ; qtot -1.923057
   11         ca      1    PYR    C10     11 -0.29620500  12.010000   ; qtot -2.219262
   12         ca      1    PYR    C11     12 -0.29620500  12.010000   ; qtot -2.515467
   13         ca      1    PYR    C12     13 -0.00205600  12.010000   ; qtot -2.517523
   14         ca      1    PYR    C13     14 -0.21414500  12.010000   ; qtot -2.731668
   15         ca      1    PYR    C14     15 0.09078000  12.010000   ; qtot -2.640888
   16         ca      1    PYR    C15     16 0.09078000  12.010000   ; qtot -2.550108
   17         ha      1    PYR      H     17 0.27099600   1.008000   ; qtot -2.279112
   18         ha      1    PYR     H1     18 0.24219100   1.008000   ; qtot -2.036921
   19         ha      1    PYR     H2     19 0.25983800   1.008000   ; qtot -1.777083
   20         ha      1    PYR     H3     20 0.25983800   1.008000   ; qtot -1.517245
   21         ha      1    PYR     H4     21 0.24219100   1.008000   ; qtot -1.275054
   22         ha      1    PYR     H5     22 0.27099600   1.008000   ; qtot -1.004058
   23         ha      1    PYR     H6     23 0.24219100   1.008000   ; qtot -0.761867
   24         ha      1    PYR     H7     24 0.25983800   1.008000   ; qtot -0.502029
   25         ha      1    PYR     H8     25 0.25983800   1.008000   ; qtot -0.242191
   26         ha      1    PYR     H9     26 0.24219100   1.008000   ; qtot 0.000000

[ bonds ]
;    ai     aj funct         c0         c1         c2         c3
     15     16     1   0.13986 296436.400000
     13     15     1   0.13986 296436.400000
     13     14     1   0.13986 296436.400000
     12     13     1   0.13986 296436.400000
     11     12     1   0.13986 296436.400000
     10     11     1   0.13986 296436.400000
     10     16     1   0.13986 296436.400000
      9     10     1   0.13986 296436.400000
      8      9     1   0.13986 296436.400000
      7      8     1   0.13986 296436.400000
      6     16     1   0.13986 296436.400000
      6      7     1   0.13986 296436.400000
      5      6     1   0.13986 296436.400000
      4      5     1   0.13986 296436.400000
      3      4     1   0.13986 296436.400000
      3     15     1   0.13986 296436.400000
      2      3     1   0.13986 296436.400000
      1     14     1   0.13986 296436.400000
      1      2     1   0.13986 296436.400000
     14     26     1   0.10860 301825.392000
     12     25     1   0.10860 301825.392000
     11     24     1   0.10860 301825.392000
      9     23     1   0.10860 301825.392000
      8     22     1   0.10860 301825.392000
      7     21     1   0.10860 301825.392000
      5     20     1   0.10860 301825.392000
      4     19     1   0.10860 301825.392000
      2     18     1   0.10860 301825.392000
      1     17     1   0.10860 301825.392000

[ pairs ]
;    ai     aj funct         c0         c1         c2         c3
     14     16     1
     12     16     1
     11     15     1
     11     14     1
     10     13     1
      9     12     1
      9     15     1
      8     11     1
      8     16     1
      7     10     1
      7     15     1
      6     11     1
      6      9     1
      6     13     1
      5     10     1
      5     15     1
      5      8     1
      4     16     1
      4      7     1
      4     13     1
      3      6     1
      3     10     1
      3     12     1
      3     14     1
      2      5     1
      2     16     1
      2     13     1
      1     12     1
      1     15     1
      1      4     1
     24     25     1
     22     23     1
     21     22     1
     19     20     1
     17     26     1
     17     18     1
     16     24     1
     16     23     1
     16     20     1
     16     21     1
     15     25     1
     15     26     1
     15     19     1
     15     18     1
     14     25     1
     14     18     1
     13     24     1
     17     13     1
     12     26     1
     11     23     1
     10     25     1
     10     22     1
      9     24     1
      9     21     1
      7     20     1
      7     23     1
      6     19     1
      6     22     1
      5     21     1
      4     18     1
      3     20     1
     17      3     1
      2     19     1
      2     26     1

[ angles ]
;    ai     aj     ak funct         c0         c1         c2         c3
     14     13     15     1   120.0200517 532.790560
     13     15     16     1   120.0200517 532.790560
     12     13     15     1   120.0200517 532.790560
     12     13     14     1   120.0200517 532.790560
     11     12     13     1   120.0200517 532.790560
     11     10     16     1   120.0200517 532.790560
     10     11     12     1   120.0200517 532.790560
     10     16     15     1   120.0200517 532.790560
      9     10     11     1   120.0200517 532.790560
      9     10     16     1   120.0200517 532.790560
      8      9     10     1   120.0200517 532.790560
      7      6     16     1   120.0200517 532.790560
      7      8      9     1   120.0200517 532.790560
      6     16     10     1   120.0200517 532.790560
      6     16     15     1   120.0200517 532.790560
      6      7      8     1   120.0200517 532.790560
      5      6     16     1   120.0200517 532.790560
      5      6      7     1   120.0200517 532.790560
      4      5      6     1   120.0200517 532.790560
      4      3     15     1   120.0200517 532.790560
      3      4      5     1   120.0200517 532.790560
      3     15     16     1   120.0200517 532.790560
      3     15     13     1   120.0200517 532.790560
      2      3      4     1   120.0200517 532.790560
      2      3     15     1   120.0200517 532.790560
      2      1     14     1   120.0200517 532.790560
      1     14     13     1   120.0200517 532.790560
      1      2      3     1   120.0200517 532.790560
     14      1     17     1   119.8800511 375.723200
     13     12     25     1   119.8800511 375.723200
     13     14     26     1   119.8800511 375.723200
     12     11     24     1   119.8800511 375.723200
     11     12     25     1   119.8800511 375.723200
     10     11     24     1   119.8800511 375.723200
     10      9     23     1   119.8800511 375.723200
      9      8     22     1   119.8800511 375.723200
      8      9     23     1   119.8800511 375.723200
      8      7     21     1   119.8800511 375.723200
      7      8     22     1   119.8800511 375.723200
      6      5     20     1   119.8800511 375.723200
      6      7     21     1   119.8800511 375.723200
      5      4     19     1   119.8800511 375.723200
      4      5     20     1   119.8800511 375.723200
      3      4     19     1   119.8800511 375.723200
      3      2     18     1   119.8800511 375.723200
      2      1     17     1   119.8800511 375.723200
      1     14     26     1   119.8800511 375.723200
      1      2     18     1   119.8800511 375.723200

[ dihedrals ]
;    ai     aj     ak     al funct         c0         c1         c2         c3         c4         c5
     14     13     15     16     1  180.0000771  15.1670000  2
     12     11     10     16     1  180.0000771  15.1670000  2
     12     13     15     16     1  180.0000771  15.1670000  2
     11     12     13     15     1  180.0000771  15.1670000  2
     11     12     13     14     1  180.0000771  15.1670000  2
     11     10     16     15     1  180.0000771  15.1670000  2
     10     11     12     13     1  180.0000771  15.1670000  2
     10     16     15     13     1  180.0000771  15.1670000  2
      9     10     11     12     1  180.0000771  15.1670000  2
      9     10     16     15     1  180.0000771  15.1670000  2
      8      9     10     11     1  180.0000771  15.1670000  2
      8      9     10     16     1  180.0000771  15.1670000  2
      8      7      6     16     1  180.0000771  15.1670000  2
      7      6     16     10     1  180.0000771  15.1670000  2
      7      6     16     15     1  180.0000771  15.1670000  2
      7      8      9     10     1  180.0000771  15.1670000  2
      6     16     10     11     1  180.0000771  15.1670000  2
      6     16     10      9     1  180.0000771  15.1670000  2
      6     16     15     13     1  180.0000771  15.1670000  2
      6      7      8      9     1  180.0000771  15.1670000  2
      5      6     16     10     1  180.0000771  15.1670000  2
      5      6     16     15     1  180.0000771  15.1670000  2
      5      6      7      8     1  180.0000771  15.1670000  2
      5      4      3     15     1  180.0000771  15.1670000  2
      4      5      6     16     1  180.0000771  15.1670000  2
      4      5      6      7     1  180.0000771  15.1670000  2
      4      3     15     16     1  180.0000771  15.1670000  2
      4      3     15     13     1  180.0000771  15.1670000  2
      3      4      5      6     1  180.0000771  15.1670000  2
      3     15     16     10     1  180.0000771  15.1670000  2
      3     15     16      6     1  180.0000771  15.1670000  2
      3     15     13     12     1  180.0000771  15.1670000  2
      3     15     13     14     1  180.0000771  15.1670000  2
     14      1      2      3     1  180.0000771  15.1670000  2
      2      3      4      5     1  180.0000771  15.1670000  2
      2      3     15     16     1  180.0000771  15.1670000  2
      2      3     15     13     1  180.0000771  15.1670000  2
      2      1     14     13     1  180.0000771  15.1670000  2
      1     14     13     12     1  180.0000771  15.1670000  2
      1     14     13     15     1  180.0000771  15.1670000  2
      1      2      3      4     1  180.0000771  15.1670000  2
      1      2      3     15     1  180.0000771  15.1670000  2
      6     10     16     15     4  180.0000771  4.6024000  2
      3     13     15     16     4  180.0000771  4.6024000  2
     12     14     13     15     4  180.0000771  4.6024000  2
      9     11     10     16     4  180.0000771  4.6024000  2
      5      7      6     16     4  180.0000771  4.6024000  2
      2      4      3     15     4  180.0000771  4.6024000  2
     24     11     12     25     1  180.0000771  15.1670000  2
     22      8      9     23     1  180.0000771  15.1670000  2
     21      7      8     22     1  180.0000771  15.1670000  2
     19      4      5     20     1  180.0000771  15.1670000  2
     17      1     14     26     1  180.0000771  15.1670000  2
     17      1      2     18     1  180.0000771  15.1670000  2
     16     10     11     24     1  180.0000771  15.1670000  2
     16     10      9     23     1  180.0000771  15.1670000  2
     16      6      5     20     1  180.0000771  15.1670000  2
     16      6      7     21     1  180.0000771  15.1670000  2
     15     13     12     25     1  180.0000771  15.1670000  2
     15     13     14     26     1  180.0000771  15.1670000  2
     15      3      4     19     1  180.0000771  15.1670000  2
     15      3      2     18     1  180.0000771  15.1670000  2
     14     13     12     25     1  180.0000771  15.1670000  2
     14      1      2     18     1  180.0000771  15.1670000  2
     13     12     11     24     1  180.0000771  15.1670000  2
     17      1     14     13     1  180.0000771  15.1670000  2
     12     13     14     26     1  180.0000771  15.1670000  2
     11     10      9     23     1  180.0000771  15.1670000  2
     10     11     12     25     1  180.0000771  15.1670000  2
     10      9      8     22     1  180.0000771  15.1670000  2
      9     10     11     24     1  180.0000771  15.1670000  2
      9      8      7     21     1  180.0000771  15.1670000  2
      7      6      5     20     1  180.0000771  15.1670000  2
      7      8      9     23     1  180.0000771  15.1670000  2
      6      5      4     19     1  180.0000771  15.1670000  2
      6      7      8     22     1  180.0000771  15.1670000  2
      5      6      7     21     1  180.0000771  15.1670000  2
      4      3      2     18     1  180.0000771  15.1670000  2
      3      4      5     20     1  180.0000771  15.1670000  2
     17      1      2      3     1  180.0000771  15.1670000  2
      2      3      4     19     1  180.0000771  15.1670000  2
      2      1     14     26     1  180.0000771  15.1670000  2
      1     13     14     26     4  180.0000771  4.6024000  2
     11     13     12     25     4  180.0000771  4.6024000  2
     10     12     11     24     4  180.0000771  4.6024000  2
      8     10      9     23     4  180.0000771  4.6024000  2
      7      9      8     22     4  180.0000771  4.6024000  2
      6      8      7     21     4  180.0000771  4.6024000  2
      4      6      5     20     4  180.0000771  4.6024000  2
      3      5      4     19     4  180.0000771  4.6024000  2
      1      3      2     18     4  180.0000771  4.6024000  2
     17      1     14      2     4  180.0000771  4.6024000  2


[ moleculetype ]
; Name            nrexcl
WAT          3

[ atoms ]
;   nr       type  resnr residue  atom   cgnr    charge       mass  typeB    chargeB      massB
; residue    1 WAT rtp WAT q 0.0
    1         OW      1    WAT      O      1 -0.83400000  16.000000   ; qtot -0.834000
    2         HW      1    WAT     H1      2 0.41700000   1.008000   ; qtot -0.417000
    3         HW      1    WAT     H2      3 0.41700000   1.008000   ; qtot 0.000000

#ifdef FLEXIBLE

[ bonds ]
;    ai     aj funct         c0         c1         c2         c3
      2      1     1   0.09572 462750.400000
      3      1     1   0.09572 462750.400000
      3      2     1   0.15136 462750.400000


#else

[ settles ]
; i     funct   doh     dhh
1     1   0.09572000   0.15136000

#endif

[ exclusions ]
1  2  3
2  1  3
3  1  2

[ system ]
; Name
Generic title

[ molecules ]
; Compound       #mols
PYR                  1
WAT               8410
