Written by MDAnalysis
  582
    1PYR      C    1   3.268   3.771   3.396
    1PYR     C1    2   3.404   3.808   3.405
    1PYR     C2    3   3.439   3.942   3.371
    1PYR     C3    4   3.575   3.984   3.388
    1PYR     C4    5   3.612   4.116   3.356
    1PYR     C5    6   3.515   4.202   3.296
    1PYR     C6    7   3.556   4.330   3.258
    1PYR     C7    8   3.465   4.425   3.197
    1PYR     C8    9   3.327   4.389   3.178
    1PYR     C9   10   3.287   4.256   3.220
    1PYR    C10   11   3.154   4.213   3.206
    1PYR    C11   12   3.113   4.079   3.243
    1PYR    C12   13   3.209   3.989   3.298
    1PYR    C13   14   3.167   3.858   3.343
    1PYR    C14   15   3.337   4.033   3.322
    1PYR    C15   16   3.378   4.160   3.282
    1PYR      H   17   3.233   3.675   3.434
    1PYR     H1   18   3.472   3.733   3.445
    1PYR     H2   19   3.648   3.912   3.423
    1PYR     H3   20   3.713   4.149   3.376
    1PYR     H4   21   3.657   4.367   3.273
    1PYR     H5   22   3.493   4.524   3.164
    1PYR     H6   23   3.253   4.459   3.141
    1PYR     H7   24   3.083   4.287   3.171
    1PYR     H8   25   3.012   4.041   3.233
    1PYR     H9   26   3.065   3.824   3.332
    2CPH     CC   27   4.476   3.941   2.731
    2CPH    HC1   28   4.584   3.952   2.740
    2CPH    HC2   29   4.433   4.005   2.654
    3MNF      O   30   4.029   3.491   3.003
    3MNF      C   31   4.108   3.540   2.925
    3MNF     C1   32   4.072   3.659   2.830
    3MNF      H   33   3.991   3.636   2.759
    3MNF     C2   34   4.197   3.680   2.749
    3MNF     C3   35   4.246   3.826   2.780
    3MNF     C4   36   4.398   3.846   2.790
    3MNF     C6   37   4.172   3.878   2.903
    3MNF     C7   38   4.039   3.796   2.906
    3MNF     C8   39   3.938   3.878   2.826
    3MNF     H1   40   4.180   3.675   2.641
    3MNF      N   41   4.233   3.491   2.893
    3MNF    C10   42   4.297   3.376   2.953
    3MNF    C11   43   4.363   3.412   3.083
    3MNF    C12   44   4.475   3.518   3.084
    3MNF    C13   45   4.506   3.553   3.232
    3MNF     O1   46   4.415   3.654   3.279
    3MNF    C14   47   4.437   3.693   3.413
    3MNF    C15   48   4.315   3.666   3.506
    3MNF     O2   49   4.303   3.524   3.524
    3MNF    C16   50   4.334   3.733   3.646
    3MNF    C17   51   4.227   3.703   3.748
    3MNF     O3   52   4.095   3.717   3.704
    3MNF     O4   53   4.352   3.875   3.621
    3MNF    C18   54   4.467   3.914   3.539
    3MNF     O5   55   4.450   4.050   3.511
    3MNF    C19   56   4.465   3.844   3.398
    3MNF     O6   57   4.594   3.865   3.330
    3MNF    C20   58   4.294   3.569   2.797
    3MNF     O7   59   4.398   3.541   2.735
    3MNF     H2   60   4.213   3.891   2.697
    3MNF     H3   61   4.442   3.781   2.866
    3MNF     H6   62   4.162   3.986   2.886
    3MNF     H7   63   4.237   3.861   2.990
    3MNF     H8   64   3.996   3.776   3.005
    3MNF     H9   65   3.982   3.954   2.761
    3MNF    H12   66   4.367   3.332   2.881
    3MNF    H13   67   4.211   3.310   2.967
    3MNF    H14   68   4.287   3.448   3.153
    3MNF    H15   69   4.409   3.323   3.127
    3MNF    H16   70   4.569   3.471   3.050
    3MNF    H17   71   4.455   3.611   3.030
    3MNF    H18   72   4.606   3.596   3.231
    3MNF    H19   73   4.502   3.474   3.308
    3MNF    H20   74   4.522   3.644   3.463
    3MNF    H21   75   4.224   3.706   3.461
    3MNF    H22   76   4.250   3.496   3.448
    3MNF    H23   77   4.429   3.702   3.691
    3MNF    H24   78   4.248   3.605   3.793
    3MNF    H25   79   4.250   3.781   3.822
    3MNF    H26   80   4.037   3.696   3.779
    3MNF    H27   81   4.561   3.887   3.589
    3MNF    H28   82   4.538   4.088   3.529
    3MNF    H29   83   4.385   3.892   3.341
    3MNF    H30   84   4.663   3.800   3.350
    4MON      O   85   3.267   3.817   2.969
    4MON      C   86   3.382   3.851   2.986
    4MON     C1   87   3.498   3.761   3.037
    4MON      H   88   3.489   3.737   3.144
    4MON     C2   89   3.621   3.856   3.019
    4MON     C3   90   3.718   3.784   2.918
    4MON     C4   91   3.803   3.876   2.835
    4MON     C6   92   3.625   3.691   2.836
    4MON     C7   93   3.518   3.642   2.941
    4MON     C8   94   3.567   3.523   3.015
    4MON     H1   95   3.667   3.881   3.116
    4MON      N   96   3.430   3.976   2.959
    4MON    C10   97   3.339   4.087   2.941
    4MON    C11   98   3.333   4.114   2.787
    4MON    C12   99   3.231   4.231   2.746
    4MON    C13  100   3.086   4.195   2.774
    4MON     O1  101   3.014   4.287   2.690
    4MON    C14  102   2.872   4.292   2.716
    4MON    C15  103   2.793   4.260   2.588
    4MON     O2  104   2.827   4.119   2.556
    4MON    C16  105   2.641   4.279   2.609
    4MON    C17  106   2.563   4.250   2.475
    4MON     O3  107   2.596   4.356   2.387
    4MON     O4  108   2.624   4.419   2.651
    4MON    C18  109   2.694   4.462   2.767
    4MON     O5  110   2.659   4.597   2.787
    4MON    C19  111   2.853   4.438   2.759
    4MON     O6  112   2.911   4.464   2.888
    4MON    C20  113   3.568   3.990   2.977
    4MON     O7  114   3.625   4.093   2.952
    4MON     H2  115   3.785   3.710   2.965
    4MON     H3  116   3.747   3.947   2.776
    4MON     H6  117   3.681   3.610   2.788
    4MON     H7  118   3.564   3.739   2.758
    4MON     H8  119   3.423   3.629   2.887
    4MON     H9  120   3.675   3.509   3.020
    4MON    H12  121   3.387   4.171   2.991
    4MON    H13  122   3.242   4.073   2.990
    4MON    H14  123   3.433   4.145   2.754
    4MON    H15  124   3.327   4.024   2.725
    4MON    H16  125   3.254   4.325   2.799
    4MON    H17  126   3.249   4.242   2.639
    4MON    H18  127   3.073   4.210   2.882
    4MON    H19  128   3.071   4.092   2.738
    4MON    H20  129   2.845   4.228   2.802
    4MON    H21  130   2.823   4.321   2.502
    4MON    H22  131   2.812   4.069   2.639
    4MON    H23  132   2.599   4.220   2.692
    4MON    H24  133   2.597   4.149   2.447
    4MON    H25  134   2.457   4.248   2.506
    4MON    H26  135   2.576   4.443   2.425
    4MON    H27  136   2.661   4.403   2.854
    4MON    H28  137   2.564   4.596   2.765
    4MON    H29  138   2.906   4.502   2.687
    4MON    H30  139   2.869   4.406   2.954
    5MON      O  140   3.480   3.113   3.381
    5MON      C  141   3.429   3.155   3.279
    5MON     C1  142   3.309   3.250   3.268
    5MON      H  143   3.221   3.200   3.309
    5MON     C2  144   3.305   3.270   3.115
    5MON     C3  145   3.345   3.417   3.087
    5MON     C4  146   3.497   3.427   3.069
    5MON     C6  147   3.296   3.489   3.213
    5MON     C7  148   3.333   3.392   3.328
    5MON     C8  149   3.261   3.414   3.461
    5MON     H1  150   3.202   3.260   3.077
    5MON      N  151   3.465   3.106   3.152
    5MON    C10  152   3.587   3.027   3.135
    5MON    C11  153   3.577   2.876   3.114
    5MON    C12  154   3.467   2.808   3.200
    5MON    C13  155   3.475   2.654   3.191
    5MON     O1  156   3.442   2.608   3.058
    5MON    C14  157   3.449   2.465   3.043
    5MON    C15  158   3.600   2.410   3.054
    5MON     O2  159   3.644   2.393   3.191
    5MON    C16  160   3.639   2.283   2.977
    5MON    C17  161   3.794   2.279   2.949
    5MON     O3  162   3.824   2.142   2.936
    5MON     O4  163   3.576   2.279   2.845
    5MON    C18  164   3.432   2.297   2.846
    5MON     O5  165   3.401   2.296   2.704
    5MON    C19  166   3.390   2.439   2.905
    5MON     O6  167   3.246   2.460   2.906
    5MON    C20  168   3.393   3.166   3.046
    5MON     O7  169   3.409   3.144   2.926
    5MON     H2  170   3.281   3.462   3.010
    5MON     H3  171   3.559   3.354   3.120
    5MON     H6  172   3.188   3.509   3.208
    5MON     H7  173   3.347   3.581   3.242
    5MON     H8  174   3.440   3.399   3.353
    5MON     H9  175   3.324   3.436   3.546
    5MON    H12  176   3.648   3.049   3.224
    5MON    H13  177   3.639   3.078   3.053
    5MON    H14  178   3.579   2.841   3.010
    5MON    H15  179   3.666   2.835   3.164
    5MON    H16  180   3.478   2.830   3.307
    5MON    H17  181   3.368   2.837   3.164
    5MON    H18  182   3.400   2.615   3.261
    5MON    H19  183   3.572   2.626   3.233
    5MON    H20  184   3.376   2.412   3.107
    5MON    H21  185   3.653   2.491   3.003
    5MON    H22  186   3.564   2.374   3.242
    5MON    H23  187   3.609   2.194   3.033
    5MON    H24  188   3.814   2.336   2.857
    5MON    H25  189   3.852   2.318   3.034
    5MON    H26  190   3.916   2.139   2.906
    5MON    H27  191   3.380   2.217   2.900
    5MON    H28  192   3.367   2.206   2.691
    5MON    H29  193   3.430   2.518   2.841
    5MON    H30  194   3.225   2.554   2.914
    6MON      O  195   2.836   3.296   3.803
    6MON      C  196   2.875   3.253   3.695
    6MON     C1  197   2.821   3.298   3.553
    6MON      H  198   2.722   3.251   3.539
    6MON     C2  199   2.927   3.245   3.452
    6MON     C3  200   3.013   3.368   3.408
    6MON     C4  201   3.127   3.406   3.492
    6MON     C6  202   2.906   3.480   3.416
    6MON     C7  203   2.823   3.453   3.535
    6MON     C8  204   2.684   3.509   3.511
    6MON     H1  205   2.892   3.188   3.366
    6MON      N  206   2.985   3.169   3.666
    6MON    C10  207   3.075   3.096   3.765
    6MON    C11  208   3.169   3.190   3.837
    6MON    C12  209   3.219   3.127   3.982
    6MON    C13  210   3.321   3.012   3.954
    6MON     O1  211   3.371   2.979   4.080
    6MON    C14  212   3.485   2.886   4.086
    6MON    C15  213   3.440   2.738   4.086
    6MON     O2  214   3.358   2.710   3.971
    6MON    C16  215   3.566   2.645   4.103
    6MON    C17  216   3.519   2.503   4.130
    6MON     O3  217   3.630   2.409   4.121
    6MON     O4  218   3.634   2.688   4.226
    6MON    C18  219   3.686   2.818   4.235
    6MON     O5  220   3.723   2.829   4.371
    6MON    C19  221   3.584   2.928   4.196
    6MON     O6  222   3.652   3.051   4.147
    6MON    C20  223   3.011   3.145   3.530
    6MON     O7  224   3.087   3.071   3.478
    6MON     H2  225   3.047   3.366   3.303
    6MON     H3  226   3.096   3.411   3.596
    6MON     H6  227   2.846   3.489   3.324
    6MON     H7  228   2.953   3.579   3.409
    6MON     H8  229   2.861   3.498   3.627
    6MON     H9  230   2.611   3.432   3.488
    6MON    H12  231   3.148   3.028   3.717
    6MON    H13  232   3.003   3.057   3.838
    6MON    H14  233   3.255   3.206   3.771
    6MON    H15  234   3.109   3.280   3.849
    6MON    H16  235   3.265   3.201   4.048
    6MON    H17  236   3.131   3.099   4.040
    6MON    H18  237   3.402   3.036   3.885
    6MON    H19  238   3.262   2.935   3.902
    6MON    H20  239   3.539   2.912   3.994
    6MON    H21  240   3.379   2.731   4.177
    6MON    H22  241   3.267   2.721   4.006
    6MON    H23  242   3.638   2.658   4.022
    6MON    H24  243   3.497   2.501   4.238
    6MON    H25  244   3.423   2.479   4.082
    6MON    H26  245   3.660   2.386   4.210
    6MON    H27  246   3.769   2.828   4.164
    6MON    H28  247   3.652   2.784   4.420
    6MON    H29  248   3.529   2.961   4.285
    6MON    H30  249   3.655   3.113   4.222
    7MON      O  250   2.500   4.058   3.854
    7MON      C  251   2.533   4.003   3.750
    7MON     C1  252   2.678   3.972   3.716
    7MON      H  253   2.731   4.067   3.701
    7MON     C2  254   2.661   3.896   3.578
    7MON     C3  255   2.706   3.748   3.603
    7MON     C4  256   2.635   3.632   3.553
    7MON     C6  257   2.726   3.736   3.755
    7MON     C7  258   2.753   3.880   3.814
    7MON     C8  259   2.897   3.925   3.833
    7MON     H1  260   2.720   3.945   3.501
    7MON      N  261   2.454   3.958   3.644
    7MON    C10  262   2.306   3.947   3.655
    7MON    C11  263   2.252   3.829   3.736
    7MON    C12  264   2.275   3.681   3.691
    7MON    C13  265   2.222   3.648   3.550
    7MON     O1  266   2.200   3.501   3.529
    7MON    C14  267   2.126   3.463   3.411
    7MON    C15  268   2.102   3.314   3.421
    7MON     O2  269   2.019   3.290   3.530
    7MON    C16  270   2.039   3.254   3.290
    7MON    C17  271   2.052   3.100   3.286
    7MON     O3  272   1.978   3.039   3.186
    7MON     O4  273   2.117   3.297   3.174
    7MON    C18  274   2.131   3.432   3.152
    7MON     O5  275   2.208   3.439   3.038
    7MON    C19  276   2.205   3.491   3.277
    7MON     O6  277   2.233   3.629   3.248
    7MON    C20  278   2.516   3.906   3.535
    7MON     O7  279   2.461   3.868   3.432
    7MON     H2  280   2.812   3.744   3.572
    7MON     H3  281   2.529   3.648   3.533
    7MON     H6  282   2.810   3.672   3.781
    7MON     H7  283   2.641   3.681   3.797
    7MON     H8  284   2.691   3.868   3.904
    7MON     H9  285   2.922   3.959   3.934
    7MON    H12  286   2.263   3.938   3.555
    7MON    H13  287   2.263   4.042   3.688
    7MON    H14  288   2.278   3.839   3.842
    7MON    H15  289   2.143   3.842   3.741
    7MON    H16  290   2.381   3.656   3.699
    7MON    H17  291   2.231   3.614   3.766
    7MON    H18  292   2.299   3.685   3.483
    7MON    H19  293   2.135   3.711   3.525
    7MON    H20  294   2.035   3.524   3.403
    7MON    H21  295   2.196   3.259   3.430
    7MON    H22  296   2.062   3.329   3.608
    7MON    H23  297   1.933   3.281   3.292
    7MON    H24  298   2.159   3.075   3.278
    7MON    H25  299   2.023   3.052   3.381
    7MON    H26  300   1.918   3.106   3.149
    7MON    H27  301   2.034   3.479   3.131
    7MON    H28  302   2.286   3.383   3.056
    7MON    H29  303   2.298   3.436   3.295
    7MON    H30  304   2.326   3.630   3.221
    8MON      O  305   3.328   4.412   3.642
    8MON      C  306   3.260   4.313   3.626
    8MON     C1  307   3.292   4.170   3.667
    8MON      H  308   3.386   4.137   3.622
    8MON     C2  309   3.173   4.083   3.616
    8MON     C3  310   3.127   3.998   3.740
    8MON     C4  311   2.983   3.958   3.736
    8MON     C6  312   3.167   4.076   3.858
    8MON     C7  313   3.293   4.157   3.818
    8MON     C8  314   3.409   4.071   3.875
    8MON     H1  315   3.201   4.018   3.533
    8MON      N  316   3.126   4.316   3.573
    8MON    C10  317   3.030   4.433   3.580
    8MON    C11  318   3.015   4.509   3.452
    8MON    C12  319   2.916   4.631   3.453
    8MON    C13  320   2.889   4.711   3.313
    8MON     O1  321   3.016   4.741   3.250
    8MON    C14  322   3.025   4.824   3.134
    8MON    C15  323   3.008   4.742   2.995
    8MON     O2  324   2.866   4.732   2.981
    8MON    C16  325   3.055   4.828   2.872
    8MON    C17  326   3.045   4.755   2.746
    8MON     O3  327   3.087   4.839   2.639
    8MON     O4  328   3.192   4.868   2.893
    8MON    C18  329   3.206   4.958   3.010
    8MON     O5  330   3.343   4.981   3.017
    8MON    C19  331   3.166   4.887   3.139
    8MON     O6  332   3.167   4.976   3.248
    8MON    C20  333   3.074   4.187   3.564
    8MON     O7  334   2.962   4.164   3.525
    8MON     H2  335   3.192   3.910   3.737
    8MON     H3  336   2.944   3.935   3.637
    8MON     H6  337   3.185   4.015   3.947
    8MON     H7  338   3.096   4.155   3.884
    8MON     H8  339   3.298   4.260   3.854
    8MON     H9  340   3.451   4.112   3.967
    8MON    H12  341   3.069   4.497   3.660
    8MON    H13  342   2.935   4.395   3.620
    8MON    H14  343   3.114   4.544   3.422
    8MON    H15  344   2.991   4.435   3.375
    8MON    H16  345   2.820   4.607   3.500
    8MON    H17  346   2.961   4.701   3.525
    8MON    H18  347   2.830   4.802   3.331
    8MON    H19  348   2.821   4.645   3.258
    8MON    H20  349   2.950   4.904   3.137
    8MON    H21  350   3.066   4.649   3.002
    8MON    H22  351   2.860   4.651   2.926
    8MON    H23  352   2.984   4.911   2.868
    8MON    H24  353   3.104   4.663   2.759
    8MON    H25  354   2.942   4.725   2.722
    8MON    H26  355   3.043   4.821   2.554
    8MON    H27  356   3.151   5.051   2.992
    8MON    H28  357   3.388   4.903   3.054
    8MON    H29  358   3.241   4.808   3.150
    8MON    H30  359   3.207   4.921   3.318
    9MON      O  360   3.287   3.543   3.774
    9MON      C  361   3.344   3.612   3.856
    9MON     C1  362   3.494   3.631   3.871
    9MON      H  363   3.526   3.539   3.921
    9MON     C2  364   3.503   3.745   3.970
    9MON     C3  365   3.564   3.867   3.896
    9MON     C4  366   3.455   3.952   3.832
    9MON     C6  367   3.650   3.801   3.782
    9MON     C7  368   3.577   3.665   3.740
    9MON     C8  369   3.679   3.562   3.692
    9MON     H1  370   3.567   3.707   4.051
    9MON      N  371   3.281   3.692   3.956
    9MON    C10  372   3.140   3.713   3.951
    9MON    C11  373   3.052   3.615   4.019
    9MON    C12  374   3.083   3.591   4.165
    9MON    C13  375   3.009   3.481   4.236
    9MON     O1  376   2.870   3.493   4.201
    9MON    C14  377   2.786   3.393   4.249
    9MON    C15  378   2.765   3.291   4.138
    9MON     O2  379   2.876   3.209   4.126
    9MON    C16  380   2.641   3.199   4.162
    9MON    C17  381   2.616   3.104   4.041
    9MON     O3  382   2.525   3.001   4.071
    9MON     O4  383   2.524   3.285   4.164
    9MON    C18  384   2.522   3.373   4.279
    9MON     O5  385   2.402   3.444   4.280
    9MON    C19  386   2.650   3.466   4.279
    9MON     O6  387   2.663   3.530   4.404
    9MON    C20  388   3.367   3.770   4.031
    9MON     O7  389   3.329   3.851   4.114
    9MON     H2  390   3.616   3.931   3.968
    9MON     H3  391   3.413   3.904   3.743
    9MON     H6  392   3.748   3.773   3.824
    9MON     H7  393   3.665   3.871   3.700
    9MON     H8  394   3.510   3.699   3.660
    9MON     H9  395   3.780   3.566   3.733
    9MON    H12  396   3.112   3.717   3.845
    9MON    H13  397   3.115   3.816   3.980
    9MON    H14  398   2.953   3.661   4.014
    9MON    H15  399   3.049   3.518   3.968
    9MON    H16  400   3.187   3.559   4.167
    9MON    H17  401   3.055   3.676   4.229
    9MON    H18  402   3.026   3.492   4.344
    9MON    H19  403   3.048   3.384   4.203
    9MON    H20  404   2.834   3.349   4.338
    9MON    H21  405   2.741   3.342   4.044
    9MON    H22  406   2.938   3.257   4.069
    9MON    H23  407   2.656   3.148   4.258
    9MON    H24  408   2.594   3.159   3.949
    9MON    H25  409   2.708   3.050   4.016
    9MON    H26  410   2.466   3.040   4.138
    9MON    H27  411   2.517   3.315   4.372
    9MON    H28  412   2.391   3.482   4.368
    9MON    H29  413   2.643   3.525   4.187
    9MON    H30  414   2.606   3.607   4.390
   10MON      O  415   4.112   3.460   3.348
   10MON      C  416   3.993   3.439   3.346
   10MON     C1  417   3.932   3.309   3.398
   10MON      H  418   3.937   3.234   3.319
   10MON     C2  419   3.780   3.341   3.417
   10MON     C3  420   3.752   3.354   3.573
   10MON     C4  421   3.653   3.465   3.608
   10MON     C6  422   3.892   3.359   3.637
   10MON     C7  423   3.978   3.270   3.541
   10MON     C8  424   3.945   3.117   3.570
   10MON     H1  425   3.710   3.268   3.376
   10MON      N  426   3.888   3.528   3.325
   10MON    C10  427   3.908   3.661   3.275
   10MON    C11  428   3.931   3.769   3.383
   10MON    C12  429   3.945   3.910   3.320
   10MON    C13  430   3.990   4.026   3.411
   10MON     O1  431   3.899   4.022   3.519
   10MON    C14  432   3.927   4.109   3.636
   10MON    C15  433   3.972   4.024   3.745
   10MON     O2  434   4.111   4.007   3.742
   10MON    C16  435   3.942   4.096   3.882
   10MON    C17  436   3.967   3.994   3.992
   10MON     O3  437   3.961   4.053   4.123
   10MON     O4  438   3.810   4.155   3.893
   10MON    C18  439   3.782   4.257   3.787
   10MON     O5  440   3.652   4.295   3.808
   10MON    C19  441   3.798   4.192   3.651
   10MON     O6  442   3.821   4.288   3.546
   10MON    C20  443   3.759   3.472   3.343
   10MON     O7  444   3.653   3.523   3.309
   10MON     H2  445   3.713   3.257   3.607
   10MON     H3  446   3.551   3.442   3.579
   10MON     H6  447   3.899   3.321   3.739
   10MON     H7  448   3.940   3.457   3.636
   10MON     H8  449   4.086   3.285   3.554
   10MON     H9  450   4.010   3.076   3.647
   10MON    H12  451   3.819   3.688   3.216
   10MON    H13  452   3.986   3.662   3.198
   10MON    H14  453   3.837   3.772   3.440
   10MON    H15  454   4.011   3.751   3.456
   10MON    H16  455   4.021   3.901   3.241
   10MON    H17  456   3.852   3.948   3.277
   10MON    H18  457   3.974   4.120   3.355
   10MON    H19  458   4.090   4.008   3.453
   10MON    H20  459   4.003   4.184   3.610
   10MON    H21  460   3.922   3.928   3.730
   10MON    H22  461   4.130   3.938   3.677
   10MON    H23  462   4.010   4.182   3.892
   10MON    H24  463   3.898   3.908   3.993
   10MON    H25  464   4.068   3.956   3.972
   10MON    H26  465   3.888   4.118   4.131
   10MON    H27  466   3.850   4.343   3.794
   10MON    H28  467   3.630   4.286   3.902
   10MON    H29  468   3.718   4.120   3.628
   10MON    H30  469   3.757   4.362   3.551
   11MON      O  470   4.298   2.769   3.482
   11MON      C  471   4.183   2.788   3.445
   11MON     C1  472   4.060   2.734   3.508
   11MON      H  473   4.059   2.625   3.518
   11MON     C2  474   3.940   2.791   3.427
   11MON     C3  475   3.855   2.888   3.506
   11MON     C4  476   3.876   3.033   3.494
   11MON     C6  477   3.888   2.839   3.651
   11MON     C7  478   4.039   2.792   3.648
   11MON     C8  479   4.072   2.685   3.764
   11MON     H1  480   3.883   2.709   3.381
   11MON      N  481   4.141   2.862   3.335
   11MON    C10  482   4.244   2.924   3.243
   11MON    C11  483   4.241   3.080   3.257
   11MON    C12  484   4.303   3.118   3.395
   11MON    C13  485   4.450   3.100   3.415
   11MON     O1  486   4.516   3.152   3.296
   11MON    C14  487   4.652   3.121   3.270
   11MON    C15  488   4.735   3.251   3.300
   11MON     O2  489   4.744   3.264   3.442
   11MON    C16  490   4.873   3.253   3.238
   11MON    C17  491   4.951   3.388   3.242
   11MON     O3  492   4.870   3.504   3.193
   11MON     O4  493   4.860   3.230   3.093
   11MON    C18  494   4.802   3.100   3.061
   11MON     O5  495   4.803   3.085   2.924
   11MON    C19  496   4.655   3.096   3.114
   11MON     O6  497   4.599   2.968   3.075
   11MON    C20  498   4.003   2.865   3.312
   11MON     O7  499   3.949   2.908   3.215
   11MON     H2  500   3.748   2.877   3.487
   11MON     H3  501   3.813   3.065   3.412
   11MON     H6  502   3.818   2.761   3.685
   11MON     H7  503   3.873   2.922   3.721
   11MON     H8  504   4.109   2.875   3.662
   11MON     H9  505   3.996   2.607   3.770
   11MON    H12  506   4.226   2.889   3.141
   11MON    H13  507   4.344   2.886   3.268
   11MON    H14  508   4.300   3.120   3.174
   11MON    H15  509   4.137   3.111   3.241
   11MON    H16  510   4.285   3.225   3.414
   11MON    H17  511   4.250   3.059   3.471
   11MON    H18  512   4.460   2.992   3.430
   11MON    H19  513   4.479   3.155   3.506
   11MON    H20  514   4.692   3.039   3.332
   11MON    H21  515   4.683   3.332   3.248
   11MON    H22  516   4.660   3.309   3.464
   11MON    H23  517   4.933   3.170   3.277
   11MON    H24  518   4.987   3.397   3.346
   11MON    H25  519   5.049   3.382   3.193
   11MON    H26  520   4.858   3.473   3.102
   11MON    H27  521   4.858   3.013   3.097
   11MON    H28  522   4.811   2.991   2.903
   11MON    H29  523   4.602   3.177   3.061
   11MON    H30  524   4.534   3.001   3.011
   12MNL      O  525   4.418   2.865   4.283
   12MNL      C  526   4.346   2.865   4.182
   12MNL     C1  527   4.390   2.899   4.037
   12MNL      H  528   4.422   3.003   4.053
   12MNL     C2  529   4.256   2.888   3.960
   12MNL     C3  530   4.287   2.774   3.855
   12MNL     C4  531   4.178   2.674   3.848
   12MNL     C6  532   4.410   2.699   3.891
   12MNL     C7  533   4.494   2.796   3.984
   12MNL     C8  534   4.621   2.854   3.924
   12MNL     H1  535   4.232   2.981   3.905
   12MNL      N  536   4.205   2.836   4.180
   12MNL    C10  537   4.127   2.775   4.294
   12MNL    C11  538   4.161   2.625   4.312
   12MNL    C12  539   4.100   2.552   4.433
   12MNL    C13  540   3.950   2.573   4.433
   12MNL     O1  541   3.904   2.496   4.545
   12MNL    C14  542   3.764   2.475   4.552
   12MNL    C15  543   3.715   2.492   4.693
   12MNL     O2  544   3.725   2.632   4.730
   12MNL    C16  545   3.571   2.442   4.704
   12MNL    C17  546   3.522   2.440   4.846
   12MNL     O3  547   3.383   2.468   4.849
   12MNL     O4  548   3.561   2.307   4.662
   12MNL    C18  549   3.592   2.281   4.526
   12MNL     O5  550   3.595   2.145   4.506
   12MNL    C19  551   3.738   2.336   4.497
   12MNL     O6  552   3.757   2.332   4.354
   12MNL    C20  553   4.147   2.848   4.054
   12MNL     O7  554   4.024   2.841   4.033
   12MNL     H2  555   4.297   2.813   3.753
   12MNL     H3  556   4.177   2.593   3.920
   12MNL     H6  557   4.458   2.671   3.796
   12MNL     H7  558   4.387   2.606   3.943
   12MNL     H8  559   4.528   2.736   4.069
   12MNL     H9  560   4.712   2.847   3.983
   12MNL    H12  561   4.022   2.800   4.279
   12MNL    H13  562   4.153   2.822   4.390
   12MNL    H14  563   4.136   2.561   4.227
   12MNL    H15  564   4.271   2.621   4.321
   12MNL    H16  565   4.122   2.445   4.430
   12MNL    H17  566   4.144   2.598   4.522
   12MNL    H18  567   3.897   2.541   4.343
   12MNL    H19  568   3.934   2.678   4.459
   12MNL    H20  569   3.711   2.553   4.495
   12MNL    H21  570   3.782   2.438   4.761
   12MNL    H22  571   3.819   2.653   4.743
   12MNL    H23  572   3.501   2.506   4.648
   12MNL    H24  573   3.540   2.339   4.884
   12MNL    H25  574   3.574   2.521   4.899
   12MNL    H26  575   3.344   2.410   4.781
   12MNL    H27  576   3.520   2.322   4.455
   12MNL    H28  577   3.675   2.126   4.557
   12MNL    H29  578   3.808   2.270   4.549
   12MNL    H30  579   3.846   2.292   4.347
   13CPT     CC  580   4.627   2.912   3.806
   13CPT    HC1  581   4.535   2.907   3.748
   13CPT    HC2  582   4.716   2.965   3.772
   5.57610   6.36842   5.48420
