Written by MDAnalysis
33648
    1PYR      C    1   3.268   3.771   3.396
    1PYR     C1    2   3.404   3.808   3.405
    1PYR     C2    3   3.439   3.942   3.371
    1PYR     C3    4   3.575   3.984   3.388
    1PYR     C4    5   3.612   4.116   3.356
    1PYR     C5    6   3.515   4.202   3.296
    1PYR     C6    7   3.556   4.330   3.258
    1PYR     C7    8   3.465   4.425   3.197
    1PYR     C8    9   3.327   4.389   3.178
    1PYR     C9   10   3.287   4.256   3.220
    1PYR    C10   11   3.154   4.213   3.206
    1PYR    C11   12   3.113   4.079   3.243
    1PYR    C12   13   3.209   3.989   3.298
    1PYR    C13   14   3.167   3.858   3.343
    1PYR    C14   15   3.337   4.033   3.322
    1PYR    C15   16   3.378   4.160   3.282
    1PYR      H   17   3.233   3.675   3.434
    1PYR     H1   18   3.472   3.733   3.445
    1PYR     H2   19   3.648   3.912   3.423
    1PYR     H3   20   3.713   4.149   3.376
    1PYR     H4   21   3.657   4.367   3.273
    1PYR     H5   22   3.493   4.524   3.164
    1PYR     H6   23   3.253   4.459   3.141
    1PYR     H7   24   3.083   4.287   3.171
    1PYR     H8   25   3.012   4.041   3.233
    1PYR     H9   26   3.065   3.824   3.332
    2CPH     CC   27   4.476   3.941   2.731
    2CPH    HC1   28   4.584   3.952   2.740
    2CPH    HC2   29   4.433   4.005   2.654
    3MNF      O   30   4.029   3.491   3.003
    3MNF      C   31   4.108   3.540   2.925
    3MNF     C1   32   4.072   3.659   2.830
    3MNF      H   33   3.991   3.636   2.759
    3MNF     C2   34   4.197   3.680   2.749
    3MNF     C3   35   4.246   3.826   2.780
    3MNF     C4   36   4.398   3.846   2.790
    3MNF     C6   37   4.172   3.878   2.903
    3MNF     C7   38   4.039   3.796   2.906
    3MNF     C8   39   3.938   3.878   2.826
    3MNF     H1   40   4.180   3.675   2.641
    3MNF      N   41   4.233   3.491   2.893
    3MNF    C10   42   4.297   3.376   2.953
    3MNF    C11   43   4.363   3.412   3.083
    3MNF    C12   44   4.475   3.518   3.084
    3MNF    C13   45   4.506   3.553   3.232
    3MNF     O1   46   4.415   3.654   3.279
    3MNF    C14   47   4.437   3.693   3.413
    3MNF    C15   48   4.315   3.666   3.506
    3MNF     O2   49   4.303   3.524   3.524
    3MNF    C16   50   4.334   3.733   3.646
    3MNF    C17   51   4.227   3.703   3.748
    3MNF     O3   52   4.095   3.717   3.704
    3MNF     O4   53   4.352   3.875   3.621
    3MNF    C18   54   4.467   3.914   3.539
    3MNF     O5   55   4.450   4.050   3.511
    3MNF    C19   56   4.465   3.844   3.398
    3MNF     O6   57   4.594   3.865   3.330
    3MNF    C20   58   4.294   3.569   2.797
    3MNF     O7   59   4.398   3.541   2.735
    3MNF     H2   60   4.213   3.891   2.697
    3MNF     H3   61   4.442   3.781   2.866
    3MNF     H6   62   4.162   3.986   2.886
    3MNF     H7   63   4.237   3.861   2.990
    3MNF     H8   64   3.996   3.776   3.005
    3MNF     H9   65   3.982   3.954   2.761
    3MNF    H12   66   4.367   3.332   2.881
    3MNF    H13   67   4.211   3.310   2.967
    3MNF    H14   68   4.287   3.448   3.153
    3MNF    H15   69   4.409   3.323   3.127
    3MNF    H16   70   4.569   3.471   3.050
    3MNF    H17   71   4.455   3.611   3.030
    3MNF    H18   72   4.606   3.596   3.231
    3MNF    H19   73   4.502   3.474   3.308
    3MNF    H20   74   4.522   3.644   3.463
    3MNF    H21   75   4.224   3.706   3.461
    3MNF    H22   76   4.250   3.496   3.448
    3MNF    H23   77   4.429   3.702   3.691
    3MNF    H24   78   4.248   3.605   3.793
    3MNF    H25   79   4.250   3.781   3.822
    3MNF    H26   80   4.037   3.696   3.779
    3MNF    H27   81   4.561   3.887   3.589
    3MNF    H28   82   4.538   4.088   3.529
    3MNF    H29   83   4.385   3.892   3.341
    3MNF    H30   84   4.663   3.800   3.350
    4MON      O   85   3.267   3.817   2.969
    4MON      C   86   3.382   3.851   2.986
    4MON     C1   87   3.498   3.761   3.037
    4MON      H   88   3.489   3.737   3.144
    4MON     C2   89   3.621   3.856   3.019
    4MON     C3   90   3.718   3.784   2.918
    4MON     C4   91   3.803   3.876   2.835
    4MON     C6   92   3.625   3.691   2.836
    4MON     C7   93   3.518   3.642   2.941
    4MON     C8   94   3.567   3.523   3.015
    4MON     H1   95   3.667   3.881   3.116
    4MON      N   96   3.430   3.976   2.959
    4MON    C10   97   3.339   4.087   2.941
    4MON    C11   98   3.333   4.114   2.787
    4MON    C12   99   3.231   4.231   2.746
    4MON    C13  100   3.086   4.195   2.774
    4MON     O1  101   3.014   4.287   2.690
    4MON    C14  102   2.872   4.292   2.716
    4MON    C15  103   2.793   4.260   2.588
    4MON     O2  104   2.827   4.119   2.556
    4MON    C16  105   2.641   4.279   2.609
    4MON    C17  106   2.563   4.250   2.475
    4MON     O3  107   2.596   4.356   2.387
    4MON     O4  108   2.624   4.419   2.651
    4MON    C18  109   2.694   4.462   2.767
    4MON     O5  110   2.659   4.597   2.787
    4MON    C19  111   2.853   4.438   2.759
    4MON     O6  112   2.911   4.464   2.888
    4MON    C20  113   3.568   3.990   2.977
    4MON     O7  114   3.625   4.093   2.952
    4MON     H2  115   3.785   3.710   2.965
    4MON     H3  116   3.747   3.947   2.776
    4MON     H6  117   3.681   3.610   2.788
    4MON     H7  118   3.564   3.739   2.758
    4MON     H8  119   3.423   3.629   2.887
    4MON     H9  120   3.675   3.509   3.020
    4MON    H12  121   3.387   4.171   2.991
    4MON    H13  122   3.242   4.073   2.990
    4MON    H14  123   3.433   4.145   2.754
    4MON    H15  124   3.327   4.024   2.725
    4MON    H16  125   3.254   4.325   2.799
    4MON    H17  126   3.249   4.242   2.639
    4MON    H18  127   3.073   4.210   2.882
    4MON    H19  128   3.071   4.092   2.738
    4MON    H20  129   2.845   4.228   2.802
    4MON    H21  130   2.823   4.321   2.502
    4MON    H22  131   2.812   4.069   2.639
    4MON    H23  132   2.599   4.220   2.692
    4MON    H24  133   2.597   4.149   2.447
    4MON    H25  134   2.457   4.248   2.506
    4MON    H26  135   2.576   4.443   2.425
    4MON    H27  136   2.661   4.403   2.854
    4MON    H28  137   2.564   4.596   2.765
    4MON    H29  138   2.906   4.502   2.687
    4MON    H30  139   2.869   4.406   2.954
    5MON      O  140   3.480   3.113   3.381
    5MON      C  141   3.429   3.155   3.279
    5MON     C1  142   3.309   3.250   3.268
    5MON      H  143   3.221   3.200   3.309
    5MON     C2  144   3.305   3.270   3.115
    5MON     C3  145   3.345   3.417   3.087
    5MON     C4  146   3.497   3.427   3.069
    5MON     C6  147   3.296   3.489   3.213
    5MON     C7  148   3.333   3.392   3.328
    5MON     C8  149   3.261   3.414   3.461
    5MON     H1  150   3.202   3.260   3.077
    5MON      N  151   3.465   3.106   3.152
    5MON    C10  152   3.587   3.027   3.135
    5MON    C11  153   3.577   2.876   3.114
    5MON    C12  154   3.467   2.808   3.200
    5MON    C13  155   3.475   2.654   3.191
    5MON     O1  156   3.442   2.608   3.058
    5MON    C14  157   3.449   2.465   3.043
    5MON    C15  158   3.600   2.410   3.054
    5MON     O2  159   3.644   2.393   3.191
    5MON    C16  160   3.639   2.283   2.977
    5MON    C17  161   3.794   2.279   2.949
    5MON     O3  162   3.824   2.142   2.936
    5MON     O4  163   3.576   2.279   2.845
    5MON    C18  164   3.432   2.297   2.846
    5MON     O5  165   3.401   2.296   2.704
    5MON    C19  166   3.390   2.439   2.905
    5MON     O6  167   3.246   2.460   2.906
    5MON    C20  168   3.393   3.166   3.046
    5MON     O7  169   3.409   3.144   2.926
    5MON     H2  170   3.281   3.462   3.010
    5MON     H3  171   3.559   3.354   3.120
    5MON     H6  172   3.188   3.509   3.208
    5MON     H7  173   3.347   3.581   3.242
    5MON     H8  174   3.440   3.399   3.353
    5MON     H9  175   3.324   3.436   3.546
    5MON    H12  176   3.648   3.049   3.224
    5MON    H13  177   3.639   3.078   3.053
    5MON    H14  178   3.579   2.841   3.010
    5MON    H15  179   3.666   2.835   3.164
    5MON    H16  180   3.478   2.830   3.307
    5MON    H17  181   3.368   2.837   3.164
    5MON    H18  182   3.400   2.615   3.261
    5MON    H19  183   3.572   2.626   3.233
    5MON    H20  184   3.376   2.412   3.107
    5MON    H21  185   3.653   2.491   3.003
    5MON    H22  186   3.564   2.374   3.242
    5MON    H23  187   3.609   2.194   3.033
    5MON    H24  188   3.814   2.336   2.857
    5MON    H25  189   3.852   2.318   3.034
    5MON    H26  190   3.916   2.139   2.906
    5MON    H27  191   3.380   2.217   2.900
    5MON    H28  192   3.367   2.206   2.691
    5MON    H29  193   3.430   2.518   2.841
    5MON    H30  194   3.225   2.554   2.914
    6MON      O  195   2.836   3.296   3.803
    6MON      C  196   2.875   3.253   3.695
    6MON     C1  197   2.821   3.298   3.553
    6MON      H  198   2.722   3.251   3.539
    6MON     C2  199   2.927   3.245   3.452
    6MON     C3  200   3.013   3.368   3.408
    6MON     C4  201   3.127   3.406   3.492
    6MON     C6  202   2.906   3.480   3.416
    6MON     C7  203   2.823   3.453   3.535
    6MON     C8  204   2.684   3.509   3.511
    6MON     H1  205   2.892   3.188   3.366
    6MON      N  206   2.985   3.169   3.666
    6MON    C10  207   3.075   3.096   3.765
    6MON    C11  208   3.169   3.190   3.837
    6MON    C12  209   3.219   3.127   3.982
    6MON    C13  210   3.321   3.012   3.954
    6MON     O1  211   3.371   2.979   4.080
    6MON    C14  212   3.485   2.886   4.086
    6MON    C15  213   3.440   2.738   4.086
    6MON     O2  214   3.358   2.710   3.971
    6MON    C16  215   3.566   2.645   4.103
    6MON    C17  216   3.519   2.503   4.130
    6MON     O3  217   3.630   2.409   4.121
    6MON     O4  218   3.634   2.688   4.226
    6MON    C18  219   3.686   2.818   4.235
    6MON     O5  220   3.723   2.829   4.371
    6MON    C19  221   3.584   2.928   4.196
    6MON     O6  222   3.652   3.051   4.147
    6MON    C20  223   3.011   3.145   3.530
    6MON     O7  224   3.087   3.071   3.478
    6MON     H2  225   3.047   3.366   3.303
    6MON     H3  226   3.096   3.411   3.596
    6MON     H6  227   2.846   3.489   3.324
    6MON     H7  228   2.953   3.579   3.409
    6MON     H8  229   2.861   3.498   3.627
    6MON     H9  230   2.611   3.432   3.488
    6MON    H12  231   3.148   3.028   3.717
    6MON    H13  232   3.003   3.057   3.838
    6MON    H14  233   3.255   3.206   3.771
    6MON    H15  234   3.109   3.280   3.849
    6MON    H16  235   3.265   3.201   4.048
    6MON    H17  236   3.131   3.099   4.040
    6MON    H18  237   3.402   3.036   3.885
    6MON    H19  238   3.262   2.935   3.902
    6MON    H20  239   3.539   2.912   3.994
    6MON    H21  240   3.379   2.731   4.177
    6MON    H22  241   3.267   2.721   4.006
    6MON    H23  242   3.638   2.658   4.022
    6MON    H24  243   3.497   2.501   4.238
    6MON    H25  244   3.423   2.479   4.082
    6MON    H26  245   3.660   2.386   4.210
    6MON    H27  246   3.769   2.828   4.164
    6MON    H28  247   3.652   2.784   4.420
    6MON    H29  248   3.529   2.961   4.285
    6MON    H30  249   3.655   3.113   4.222
    7MON      O  250   2.500   4.058   3.854
    7MON      C  251   2.533   4.003   3.750
    7MON     C1  252   2.678   3.972   3.716
    7MON      H  253   2.731   4.067   3.701
    7MON     C2  254   2.661   3.896   3.578
    7MON     C3  255   2.706   3.748   3.603
    7MON     C4  256   2.635   3.632   3.553
    7MON     C6  257   2.726   3.736   3.755
    7MON     C7  258   2.753   3.880   3.814
    7MON     C8  259   2.897   3.925   3.833
    7MON     H1  260   2.720   3.945   3.501
    7MON      N  261   2.454   3.958   3.644
    7MON    C10  262   2.306   3.947   3.655
    7MON    C11  263   2.252   3.829   3.736
    7MON    C12  264   2.275   3.681   3.691
    7MON    C13  265   2.222   3.648   3.550
    7MON     O1  266   2.200   3.501   3.529
    7MON    C14  267   2.126   3.463   3.411
    7MON    C15  268   2.102   3.314   3.421
    7MON     O2  269   2.019   3.290   3.530
    7MON    C16  270   2.039   3.254   3.290
    7MON    C17  271   2.052   3.100   3.286
    7MON     O3  272   1.978   3.039   3.186
    7MON     O4  273   2.117   3.297   3.174
    7MON    C18  274   2.131   3.432   3.152
    7MON     O5  275   2.208   3.439   3.038
    7MON    C19  276   2.205   3.491   3.277
    7MON     O6  277   2.233   3.629   3.248
    7MON    C20  278   2.516   3.906   3.535
    7MON     O7  279   2.461   3.868   3.432
    7MON     H2  280   2.812   3.744   3.572
    7MON     H3  281   2.529   3.648   3.533
    7MON     H6  282   2.810   3.672   3.781
    7MON     H7  283   2.641   3.681   3.797
    7MON     H8  284   2.691   3.868   3.904
    7MON     H9  285   2.922   3.959   3.934
    7MON    H12  286   2.263   3.938   3.555
    7MON    H13  287   2.263   4.042   3.688
    7MON    H14  288   2.278   3.839   3.842
    7MON    H15  289   2.143   3.842   3.741
    7MON    H16  290   2.381   3.656   3.699
    7MON    H17  291   2.231   3.614   3.766
    7MON    H18  292   2.299   3.685   3.483
    7MON    H19  293   2.135   3.711   3.525
    7MON    H20  294   2.035   3.524   3.403
    7MON    H21  295   2.196   3.259   3.430
    7MON    H22  296   2.062   3.329   3.608
    7MON    H23  297   1.933   3.281   3.292
    7MON    H24  298   2.159   3.075   3.278
    7MON    H25  299   2.023   3.052   3.381
    7MON    H26  300   1.918   3.106   3.149
    7MON    H27  301   2.034   3.479   3.131
    7MON    H28  302   2.286   3.383   3.056
    7MON    H29  303   2.298   3.436   3.295
    7MON    H30  304   2.326   3.630   3.221
    8MON      O  305   3.328   4.412   3.642
    8MON      C  306   3.260   4.313   3.626
    8MON     C1  307   3.292   4.170   3.667
    8MON      H  308   3.386   4.137   3.622
    8MON     C2  309   3.173   4.083   3.616
    8MON     C3  310   3.127   3.998   3.740
    8MON     C4  311   2.983   3.958   3.736
    8MON     C6  312   3.167   4.076   3.858
    8MON     C7  313   3.293   4.157   3.818
    8MON     C8  314   3.409   4.071   3.875
    8MON     H1  315   3.201   4.018   3.533
    8MON      N  316   3.126   4.316   3.573
    8MON    C10  317   3.030   4.433   3.580
    8MON    C11  318   3.015   4.509   3.452
    8MON    C12  319   2.916   4.631   3.453
    8MON    C13  320   2.889   4.711   3.313
    8MON     O1  321   3.016   4.741   3.250
    8MON    C14  322   3.025   4.824   3.134
    8MON    C15  323   3.008   4.742   2.995
    8MON     O2  324   2.866   4.732   2.981
    8MON    C16  325   3.055   4.828   2.872
    8MON    C17  326   3.045   4.755   2.746
    8MON     O3  327   3.087   4.839   2.639
    8MON     O4  328   3.192   4.868   2.893
    8MON    C18  329   3.206   4.958   3.010
    8MON     O5  330   3.343   4.981   3.017
    8MON    C19  331   3.166   4.887   3.139
    8MON     O6  332   3.167   4.976   3.248
    8MON    C20  333   3.074   4.187   3.564
    8MON     O7  334   2.962   4.164   3.525
    8MON     H2  335   3.192   3.910   3.737
    8MON     H3  336   2.944   3.935   3.637
    8MON     H6  337   3.185   4.015   3.947
    8MON     H7  338   3.096   4.155   3.884
    8MON     H8  339   3.298   4.260   3.854
    8MON     H9  340   3.451   4.112   3.967
    8MON    H12  341   3.069   4.497   3.660
    8MON    H13  342   2.935   4.395   3.620
    8MON    H14  343   3.114   4.544   3.422
    8MON    H15  344   2.991   4.435   3.375
    8MON    H16  345   2.820   4.607   3.500
    8MON    H17  346   2.961   4.701   3.525
    8MON    H18  347   2.830   4.802   3.331
    8MON    H19  348   2.821   4.645   3.258
    8MON    H20  349   2.950   4.904   3.137
    8MON    H21  350   3.066   4.649   3.002
    8MON    H22  351   2.860   4.651   2.926
    8MON    H23  352   2.984   4.911   2.868
    8MON    H24  353   3.104   4.663   2.759
    8MON    H25  354   2.942   4.725   2.722
    8MON    H26  355   3.043   4.821   2.554
    8MON    H27  356   3.151   5.051   2.992
    8MON    H28  357   3.388   4.903   3.054
    8MON    H29  358   3.241   4.808   3.150
    8MON    H30  359   3.207   4.921   3.318
    9MON      O  360   3.287   3.543   3.774
    9MON      C  361   3.344   3.612   3.856
    9MON     C1  362   3.494   3.631   3.871
    9MON      H  363   3.526   3.539   3.921
    9MON     C2  364   3.503   3.745   3.970
    9MON     C3  365   3.564   3.867   3.896
    9MON     C4  366   3.455   3.952   3.832
    9MON     C6  367   3.650   3.801   3.782
    9MON     C7  368   3.577   3.665   3.740
    9MON     C8  369   3.679   3.562   3.692
    9MON     H1  370   3.567   3.707   4.051
    9MON      N  371   3.281   3.692   3.956
    9MON    C10  372   3.140   3.713   3.951
    9MON    C11  373   3.052   3.615   4.019
    9MON    C12  374   3.083   3.591   4.165
    9MON    C13  375   3.009   3.481   4.236
    9MON     O1  376   2.870   3.493   4.201
    9MON    C14  377   2.786   3.393   4.249
    9MON    C15  378   2.765   3.291   4.138
    9MON     O2  379   2.876   3.209   4.126
    9MON    C16  380   2.641   3.199   4.162
    9MON    C17  381   2.616   3.104   4.041
    9MON     O3  382   2.525   3.001   4.071
    9MON     O4  383   2.524   3.285   4.164
    9MON    C18  384   2.522   3.373   4.279
    9MON     O5  385   2.402   3.444   4.280
    9MON    C19  386   2.650   3.466   4.279
    9MON     O6  387   2.663   3.530   4.404
    9MON    C20  388   3.367   3.770   4.031
    9MON     O7  389   3.329   3.851   4.114
    9MON     H2  390   3.616   3.931   3.968
    9MON     H3  391   3.413   3.904   3.743
    9MON     H6  392   3.748   3.773   3.824
    9MON     H7  393   3.665   3.871   3.700
    9MON     H8  394   3.510   3.699   3.660
    9MON     H9  395   3.780   3.566   3.733
    9MON    H12  396   3.112   3.717   3.845
    9MON    H13  397   3.115   3.816   3.980
    9MON    H14  398   2.953   3.661   4.014
    9MON    H15  399   3.049   3.518   3.968
    9MON    H16  400   3.187   3.559   4.167
    9MON    H17  401   3.055   3.676   4.229
    9MON    H18  402   3.026   3.492   4.344
    9MON    H19  403   3.048   3.384   4.203
    9MON    H20  404   2.834   3.349   4.338
    9MON    H21  405   2.741   3.342   4.044
    9MON    H22  406   2.938   3.257   4.069
    9MON    H23  407   2.656   3.148   4.258
    9MON    H24  408   2.594   3.159   3.949
    9MON    H25  409   2.708   3.050   4.016
    9MON    H26  410   2.466   3.040   4.138
    9MON    H27  411   2.517   3.315   4.372
    9MON    H28  412   2.391   3.482   4.368
    9MON    H29  413   2.643   3.525   4.187
    9MON    H30  414   2.606   3.607   4.390
   10MON      O  415   4.112   3.460   3.348
   10MON      C  416   3.993   3.439   3.346
   10MON     C1  417   3.932   3.309   3.398
   10MON      H  418   3.937   3.234   3.319
   10MON     C2  419   3.780   3.341   3.417
   10MON     C3  420   3.752   3.354   3.573
   10MON     C4  421   3.653   3.465   3.608
   10MON     C6  422   3.892   3.359   3.637
   10MON     C7  423   3.978   3.270   3.541
   10MON     C8  424   3.945   3.117   3.570
   10MON     H1  425   3.710   3.268   3.376
   10MON      N  426   3.888   3.528   3.325
   10MON    C10  427   3.908   3.661   3.275
   10MON    C11  428   3.931   3.769   3.383
   10MON    C12  429   3.945   3.910   3.320
   10MON    C13  430   3.990   4.026   3.411
   10MON     O1  431   3.899   4.022   3.519
   10MON    C14  432   3.927   4.109   3.636
   10MON    C15  433   3.972   4.024   3.745
   10MON     O2  434   4.111   4.007   3.742
   10MON    C16  435   3.942   4.096   3.882
   10MON    C17  436   3.967   3.994   3.992
   10MON     O3  437   3.961   4.053   4.123
   10MON     O4  438   3.810   4.155   3.893
   10MON    C18  439   3.782   4.257   3.787
   10MON     O5  440   3.652   4.295   3.808
   10MON    C19  441   3.798   4.192   3.651
   10MON     O6  442   3.821   4.288   3.546
   10MON    C20  443   3.759   3.472   3.343
   10MON     O7  444   3.653   3.523   3.309
   10MON     H2  445   3.713   3.257   3.607
   10MON     H3  446   3.551   3.442   3.579
   10MON     H6  447   3.899   3.321   3.739
   10MON     H7  448   3.940   3.457   3.636
   10MON     H8  449   4.086   3.285   3.554
   10MON     H9  450   4.010   3.076   3.647
   10MON    H12  451   3.819   3.688   3.216
   10MON    H13  452   3.986   3.662   3.198
   10MON    H14  453   3.837   3.772   3.440
   10MON    H15  454   4.011   3.751   3.456
   10MON    H16  455   4.021   3.901   3.241
   10MON    H17  456   3.852   3.948   3.277
   10MON    H18  457   3.974   4.120   3.355
   10MON    H19  458   4.090   4.008   3.453
   10MON    H20  459   4.003   4.184   3.610
   10MON    H21  460   3.922   3.928   3.730
   10MON    H22  461   4.130   3.938   3.677
   10MON    H23  462   4.010   4.182   3.892
   10MON    H24  463   3.898   3.908   3.993
   10MON    H25  464   4.068   3.956   3.972
   10MON    H26  465   3.888   4.118   4.131
   10MON    H27  466   3.850   4.343   3.794
   10MON    H28  467   3.630   4.286   3.902
   10MON    H29  468   3.718   4.120   3.628
   10MON    H30  469   3.757   4.362   3.551
   11MON      O  470   4.298   2.769   3.482
   11MON      C  471   4.183   2.788   3.445
   11MON     C1  472   4.060   2.734   3.508
   11MON      H  473   4.059   2.625   3.518
   11MON     C2  474   3.940   2.791   3.427
   11MON     C3  475   3.855   2.888   3.506
   11MON     C4  476   3.876   3.033   3.494
   11MON     C6  477   3.888   2.839   3.651
   11MON     C7  478   4.039   2.792   3.648
   11MON     C8  479   4.072   2.685   3.764
   11MON     H1  480   3.883   2.709   3.381
   11MON      N  481   4.141   2.862   3.335
   11MON    C10  482   4.244   2.924   3.243
   11MON    C11  483   4.241   3.080   3.257
   11MON    C12  484   4.303   3.118   3.395
   11MON    C13  485   4.450   3.100   3.415
   11MON     O1  486   4.516   3.152   3.296
   11MON    C14  487   4.652   3.121   3.270
   11MON    C15  488   4.735   3.251   3.300
   11MON     O2  489   4.744   3.264   3.442
   11MON    C16  490   4.873   3.253   3.238
   11MON    C17  491   4.951   3.388   3.242
   11MON     O3  492   4.870   3.504   3.193
   11MON     O4  493   4.860   3.230   3.093
   11MON    C18  494   4.802   3.100   3.061
   11MON     O5  495   4.803   3.085   2.924
   11MON    C19  496   4.655   3.096   3.114
   11MON     O6  497   4.599   2.968   3.075
   11MON    C20  498   4.003   2.865   3.312
   11MON     O7  499   3.949   2.908   3.215
   11MON     H2  500   3.748   2.877   3.487
   11MON     H3  501   3.813   3.065   3.412
   11MON     H6  502   3.818   2.761   3.685
   11MON     H7  503   3.873   2.922   3.721
   11MON     H8  504   4.109   2.875   3.662
   11MON     H9  505   3.996   2.607   3.770
   11MON    H12  506   4.226   2.889   3.141
   11MON    H13  507   4.344   2.886   3.268
   11MON    H14  508   4.300   3.120   3.174
   11MON    H15  509   4.137   3.111   3.241
   11MON    H16  510   4.285   3.225   3.414
   11MON    H17  511   4.250   3.059   3.471
   11MON    H18  512   4.460   2.992   3.430
   11MON    H19  513   4.479   3.155   3.506
   11MON    H20  514   4.692   3.039   3.332
   11MON    H21  515   4.683   3.332   3.248
   11MON    H22  516   4.660   3.309   3.464
   11MON    H23  517   4.933   3.170   3.277
   11MON    H24  518   4.987   3.397   3.346
   11MON    H25  519   5.049   3.382   3.193
   11MON    H26  520   4.858   3.473   3.102
   11MON    H27  521   4.858   3.013   3.097
   11MON    H28  522   4.811   2.991   2.903
   11MON    H29  523   4.602   3.177   3.061
   11MON    H30  524   4.534   3.001   3.011
   12MNL      O  525   4.418   2.865   4.283
   12MNL      C  526   4.346   2.865   4.182
   12MNL     C1  527   4.390   2.899   4.037
   12MNL      H  528   4.422   3.003   4.053
   12MNL     C2  529   4.256   2.888   3.960
   12MNL     C3  530   4.287   2.774   3.855
   12MNL     C4  531   4.178   2.674   3.848
   12MNL     C6  532   4.410   2.699   3.891
   12MNL     C7  533   4.494   2.796   3.984
   12MNL     C8  534   4.621   2.854   3.924
   12MNL     H1  535   4.232   2.981   3.905
   12MNL      N  536   4.205   2.836   4.180
   12MNL    C10  537   4.127   2.775   4.294
   12MNL    C11  538   4.161   2.625   4.312
   12MNL    C12  539   4.100   2.552   4.433
   12MNL    C13  540   3.950   2.573   4.433
   12MNL     O1  541   3.904   2.496   4.545
   12MNL    C14  542   3.764   2.475   4.552
   12MNL    C15  543   3.715   2.492   4.693
   12MNL     O2  544   3.725   2.632   4.730
   12MNL    C16  545   3.571   2.442   4.704
   12MNL    C17  546   3.522   2.440   4.846
   12MNL     O3  547   3.383   2.468   4.849
   12MNL     O4  548   3.561   2.307   4.662
   12MNL    C18  549   3.592   2.281   4.526
   12MNL     O5  550   3.595   2.145   4.506
   12MNL    C19  551   3.738   2.336   4.497
   12MNL     O6  552   3.757   2.332   4.354
   12MNL    C20  553   4.147   2.848   4.054
   12MNL     O7  554   4.024   2.841   4.033
   12MNL     H2  555   4.297   2.813   3.753
   12MNL     H3  556   4.177   2.593   3.920
   12MNL     H6  557   4.458   2.671   3.796
   12MNL     H7  558   4.387   2.606   3.943
   12MNL     H8  559   4.528   2.736   4.069
   12MNL     H9  560   4.712   2.847   3.983
   12MNL    H12  561   4.022   2.800   4.279
   12MNL    H13  562   4.153   2.822   4.390
   12MNL    H14  563   4.136   2.561   4.227
   12MNL    H15  564   4.271   2.621   4.321
   12MNL    H16  565   4.122   2.445   4.430
   12MNL    H17  566   4.144   2.598   4.522
   12MNL    H18  567   3.897   2.541   4.343
   12MNL    H19  568   3.934   2.678   4.459
   12MNL    H20  569   3.711   2.553   4.495
   12MNL    H21  570   3.782   2.438   4.761
   12MNL    H22  571   3.819   2.653   4.743
   12MNL    H23  572   3.501   2.506   4.648
   12MNL    H24  573   3.540   2.339   4.884
   12MNL    H25  574   3.574   2.521   4.899
   12MNL    H26  575   3.344   2.410   4.781
   12MNL    H27  576   3.520   2.322   4.455
   12MNL    H28  577   3.675   2.126   4.557
   12MNL    H29  578   3.808   2.270   4.549
   12MNL    H30  579   3.846   2.292   4.347
   13CPT     CC  580   4.627   2.912   3.806
   13CPT    HC1  581   4.535   2.907   3.748
   13CPT    HC2  582   4.716   2.965   3.772
   14WAT      O  583   0.230   0.628   0.113
   14WAT     H1  584   0.137   0.626   0.150
   14WAT     H2  585   0.231   0.589   0.021
   15WAT      O  586   0.225   0.275   0.996
   15WAT     H1  587   0.260   0.258   1.088
   15WAT     H2  588   0.137   0.230   0.984
   16WAT      O  589   0.019   0.368   0.647
   16WAT     H1  590  -0.063   0.411   0.686
   16WAT     H2  591  -0.009   0.295   0.584
   17WAT      O  592   0.569   1.275   1.165
   17WAT     H1  593   0.476   1.268   1.128
   17WAT     H2  594   0.580   1.364   1.209
   18WAT      O  595   1.555   1.511   0.703
   18WAT     H1  596   1.498   1.495   0.784
   18WAT     H2  597   1.496   1.521   0.623
   19WAT      O  598   1.135   0.703   0.717
   19WAT     H1  599   1.192   0.781   0.692
   19WAT     H2  600   1.075   0.729   0.793
   20WAT      O  601   1.755   0.607   0.231
   20WAT     H1  602   1.743   0.594   0.132
   20WAT     H2  603   1.725   0.526   0.280
   21WAT      O  604   0.768   1.144   1.023
   21WAT     H1  605   0.690   1.161   1.083
   21WAT     H2  606   0.802   1.231   0.987
   22WAT      O  607   0.850   0.798   1.823
   22WAT     H1  608   0.846   0.874   1.888
   22WAT     H2  609   0.872   0.834   1.732
   23WAT      O  610   0.685   1.012   0.665
   23WAT     H1  611   0.754   0.996   0.735
   23WAT     H2  612   0.612   1.069   0.703
   24WAT      O  613   0.686   1.161   1.803
   24WAT     H1  614   0.746   1.240   1.817
   24WAT     H2  615   0.600   1.192   1.762
   25WAT      O  616   0.335   1.435   1.061
   25WAT     H1  617   0.257   1.404   1.008
   25WAT     H2  618   0.393   1.493   1.004
   26WAT      O  619   1.460   1.505   1.339
   26WAT     H1  620   1.484   1.599   1.365
   26WAT     H2  621   1.444   1.451   1.421
   27WAT      O  622   0.438   0.392   1.499
   27WAT     H1  623   0.520   0.336   1.508
   27WAT     H2  624   0.357   0.334   1.503
   28WAT      O  625   1.603   0.447   0.737
   28WAT     H1  626   1.529   0.493   0.687
   28WAT     H2  627   1.654   0.515   0.790
   29WAT      O  628   0.231   1.713   0.483
   29WAT     H1  629   0.265   1.790   0.537
   29WAT     H2  630   0.275   1.713   0.393
   30WAT      O  631   1.127   1.341   1.690
   30WAT     H1  632   1.174   1.341   1.778
   30WAT     H2  633   1.079   1.254   1.679
   31WAT      O  634   0.230   1.434   0.538
   31WAT     H1  635   0.204   1.530   0.538
   31WAT     H2  636   0.159   1.380   0.583
   32WAT      O  637   0.240   1.091   0.886
   32WAT     H1  638   0.254   1.007   0.938
   32WAT     H2  639   0.185   1.155   0.941
   33WAT      O  640   0.620   1.786   1.439
   33WAT     H1  641   0.528   1.769   1.474
   33WAT     H2  642   0.648   1.878   1.465
   34WAT      O  643   0.606   0.964   0.123
   34WAT     H1  644   0.613   1.048   0.069
   34WAT     H2  645   0.652   0.977   0.211
   35WAT      O  646   1.594   0.114   1.480
   35WAT     H1  647   1.576   0.181   1.408
   35WAT     H2  648   1.591   0.160   1.569
   36WAT      O  649   0.122   0.643   0.563
   36WAT     H1  650   0.077   0.555   0.580
   36WAT     H2  651   0.121   0.697   0.647
   37WAT      O  652   1.842   1.767   0.359
   37WAT     H1  653   1.896   1.738   0.439
   37WAT     H2  654   1.872   1.857   0.330
   38WAT      O  655   0.027   1.596   0.117
   38WAT     H1  656   0.008   1.500   0.138
   38WAT     H2  657  -0.006   1.654   0.192
   39WAT      O  658   1.689   0.922   0.612
   39WAT     H1  659   1.784   0.893   0.620
   39WAT     H2  660   1.681   0.987   0.537
   40WAT      O  661   1.641   1.108   0.432
   40WAT     H1  662   1.727   1.110   0.380
   40WAT     H2  663   1.655   1.155   0.520
   41WAT      O  664   0.113   0.737   1.597
   41WAT     H1  665   0.201   0.724   1.642
   41WAT     H2  666   0.100   0.834   1.575
   42WAT      O  667   0.613   1.365   0.726
   42WAT     H1  668   0.564   1.278   0.735
   42WAT     H2  669   0.590   1.408   0.639
   43WAT      O  670   1.293   1.228   1.423
   43WAT     H1  671   1.330   1.155   1.365
   43WAT     H2  672   1.345   1.233   1.508
   44WAT      O  673   0.809   0.004   0.502
   44WAT     H1  674   0.849   0.095   0.493
   44WAT     H2  675   0.709   0.012   0.508
   45WAT      O  676   0.197   0.976   1.264
   45WAT     H1  677   0.286   0.931   1.250
   45WAT     H2  678   0.124   0.911   1.245
   46WAT      O  679   1.525   0.999   0.190
   46WAT     H1  680   1.462   0.923   0.203
   46WAT     H2  681   1.573   1.017   0.276
   47WAT      O  682   1.187   1.792   1.616
   47WAT     H1  683   1.211   1.852   1.540
   47WAT     H2  684   1.194   1.697   1.586
   48WAT      O  685   0.317   0.251   1.801
   48WAT     H1  686   0.388   0.322   1.807
   48WAT     H2  687   0.229   0.290   1.829
   49WAT      O  688   1.466   1.417   0.953
   49WAT     H1  689   1.407   1.423   1.033
   49WAT     H2  690   1.451   1.329   0.907
   50WAT      O  691   1.667   1.714   0.572
   50WAT     H1  692   1.626   1.691   0.484
   50WAT     H2  693   1.649   1.640   0.637
   51WAT      O  694   0.598   0.729   0.270
   51WAT     H1  695   0.622   0.798   0.202
   51WAT     H2  696   0.520   0.762   0.324
   52WAT      O  697   1.281   0.345   0.944
   52WAT     H1  698   1.195   0.295   0.931
   52WAT     H2  699   1.343   0.291   1.000
   53WAT      O  700   1.576   1.662   0.307
   53WAT     H1  701   1.665   1.708   0.310
   53WAT     H2  702   1.555   1.638   0.212
   54WAT      O  703   0.807   0.605   1.465
   54WAT     H1  704   0.760   0.602   1.554
   54WAT     H2  705   0.756   0.550   1.399
   55WAT      O  706   1.394   0.469   1.674
   55WAT     H1  707   1.374   0.512   1.762
   55WAT     H2  708   1.472   0.407   1.683
   56WAT      O  709   0.973   0.890   1.572
   56WAT     H1  710   1.019   0.806   1.543
   56WAT     H2  711   0.917   0.924   1.497
   57WAT      O  712   0.991   0.410   1.242
   57WAT     H1  713   0.914   0.444   1.296
   57WAT     H2  714   0.957   0.359   1.163
   58WAT      O  715   1.041   0.701   0.429
   58WAT     H1  716   1.067   0.697   0.525
   58WAT     H2  717   0.956   0.650   0.415
   59WAT      O  718   0.076   0.811   0.789
   59WAT     H1  719   0.175   0.799   0.798
   59WAT     H2  720   0.052   0.906   0.810
   60WAT      O  721   0.130   1.821   1.571
   60WAT     H1  722   0.120   1.806   1.670
   60WAT     H2  723   0.044   1.857   1.535
   61WAT      O  724   0.865   0.348   0.195
   61WAT     H1  725   0.924   0.411   0.146
   61WAT     H2  726   0.884   0.254   0.166
   62WAT      O  727   1.719   0.585   1.831
   62WAT     H1  728   1.693   0.674   1.795
   62WAT     H2  729   1.717   0.517   1.758
   63WAT      O  730   1.362   1.144   0.545
   63WAT     H1  731   1.445   1.115   0.497
   63WAT     H2  732   1.313   1.211   0.489
   64WAT      O  733   0.550   0.196   0.885
   64WAT     H1  734   0.545   0.191   0.985
   64WAT     H2  735   0.552   0.292   0.856
   65WAT      O  736   1.008   1.456   0.477
   65WAT     H1  737   0.962   1.528   0.425
   65WAT     H2  738   1.004   1.476   0.575
   66WAT      O  739   0.351   1.801   0.853
   66WAT     H1  740   0.401   1.715   0.859
   66WAT     H2  741   0.416   1.878   0.850
   67WAT      O  742   1.795   1.066   0.873
   67WAT     H1  743   1.733   1.051   0.797
   67WAT     H2  744   1.743   1.077   0.958
   68WAT      O  745   1.227   1.550   1.506
   68WAT     H1  746   1.233   1.473   1.570
   68WAT     H2  747   1.175   1.524   1.426
   69WAT      O  748   0.321   0.943   0.242
   69WAT     H1  749   0.403   0.982   0.200
   69WAT     H2  750   0.294   0.861   0.193
   70WAT      O  751   1.458   0.735   0.728
   70WAT     H1  752   1.453   0.670   0.803
   70WAT     H2  753   1.538   0.794   0.741
   71WAT      O  754   0.461   1.266   1.727
   71WAT     H1  755   0.411   1.267   1.641
   71WAT     H2  756   0.398   1.248   1.803
   72WAT      O  757   1.111   1.776   0.237
   72WAT     H1  758   1.051   1.714   0.287
   72WAT     H2  759   1.142   1.732   0.152
   73WAT      O  760   0.202   0.285   1.498
   73WAT     H1  761   0.122   0.345   1.485
   73WAT     H2  762   0.192   0.236   1.584
   74WAT      O  763   1.632   1.377   0.081
   74WAT     H1  764   1.600   1.471   0.071
   74WAT     H2  765   1.556   1.314   0.069
   75WAT      O  766   0.464   1.743   0.323
   75WAT     H1  767   0.497   1.782   0.409
   75WAT     H2  768   0.540   1.736   0.258
   76WAT      O  769   1.400   0.107   0.426
   76WAT     H1  770   1.376   0.070   0.336
   76WAT     H2  771   1.499   0.123   0.430
   77WAT      O  772   0.249   1.785   1.241
   77WAT     H1  773   0.306   1.720   1.291
   77WAT     H2  774   0.233   1.752   1.148
   78WAT      O  775   0.940   1.698   0.904
   78WAT     H1  776   1.020   1.641   0.925
   78WAT     H2  777   0.891   1.658   0.827
   79WAT      O  778   0.382   0.700   0.480
   79WAT     H1  779   0.427   0.610   0.477
   79WAT     H2  780   0.288   0.689   0.513
   80WAT      O  781   1.547   0.222   1.729
   80WAT     H1  782   1.542   0.259   1.821
   80WAT     H2  783   1.475   0.153   1.717
   81WAT      O  784   0.614   0.122   0.117
   81WAT     H1  785   0.712   0.100   0.124
   81WAT     H2  786   0.583   0.105   0.024
   82WAT      O  787   0.781   0.264   1.749
   82WAT     H1  788   0.848   0.203   1.792
   82WAT     H2  789   0.708   0.283   1.814
   83WAT      O  790   0.888   1.514   1.195
   83WAT     H1  791   0.865   1.489   1.101
   83WAT     H2  792   0.949   1.445   1.234
   84WAT      O  793   1.351   0.590   1.433
   84WAT     H1  794   1.379   0.547   1.518
   84WAT     H2  795   1.376   0.686   1.434
   85WAT      O  796   0.803   1.402   0.924
   85WAT     H1  797   0.893   1.416   0.882
   85WAT     H2  798   0.732   1.404   0.853
   86WAT      O  799   0.922   0.503   0.899
   86WAT     H1  800   0.897   0.494   0.803
   86WAT     H2  801   0.970   0.421   0.930
   87WAT      O  802   0.539   0.064   0.512
   87WAT     H1  803   0.458   0.065   0.570
   87WAT     H2  804   0.542   0.147   0.457
   88WAT      O  805   1.434   1.188   0.041
   88WAT     H1  806   1.466   1.112   0.098
   88WAT     H2  807   1.342   1.215   0.071
   89WAT      O  808   0.297   0.035   0.171
   89WAT     H1  809   0.346   0.119   0.150
   89WAT     H2  810   0.359  -0.030   0.216
   90WAT      O  811   0.935   0.236   0.480
   90WAT     H1  812   0.887   0.277   0.402
   90WAT     H2  813   1.034   0.234   0.461
   91WAT      O  814   1.076   0.683   1.464
   91WAT     H1  815   0.996   0.622   1.467
   91WAT     H2  816   1.157   0.630   1.440
   92WAT      O  817   1.227   1.570   0.793
   92WAT     H1  818   1.248   1.644   0.728
   92WAT     H2  819   1.295   1.570   0.866
   93WAT      O  820   0.459   1.152   0.741
   93WAT     H1  821   0.388   1.125   0.806
   93WAT     H2  822   0.433   1.124   0.648
   94WAT      O  823   1.271   1.797   0.591
   94WAT     H1  824   1.315   1.861   0.527
   94WAT     H2  825   1.221   1.849   0.661
   95WAT      O  826   1.032   0.549   0.016
   95WAT     H1  827   0.991   0.631  -0.023
   95WAT     H2  828   1.096   0.575   0.089
   96WAT      O  829   0.078   0.556   1.386
   96WAT     H1  830   0.170   0.555   1.345
   96WAT     H2  831   0.072   0.630   1.453
   97WAT      O  832   0.561   0.222   1.147
   97WAT     H1  833   0.599   0.138   1.184
   97WAT     H2  834   0.473   0.241   1.191
   98WAT      O  835   0.866   0.454   0.642
   98WAT     H1  836   0.834   0.526   0.580
   98WAT     H2  837   0.890   0.373   0.589
   99WAT      O  838   1.017   0.039   0.753
   99WAT     H1  839   0.945   0.044   0.684
   99WAT     H2  840   0.993  -0.030   0.822
  100WAT      O  841   1.429   1.173   0.867
  100WAT     H1  842   1.374   1.089   0.860
  100WAT     H2  843   1.455   1.202   0.775
  101WAT      O  844   1.466   0.590   0.992
  101WAT     H1  845   1.436   0.495   0.999
  101WAT     H2  846   1.539   0.606   1.058
  102WAT      O  847   1.857   0.833   0.377
  102WAT     H1  848   1.899   0.769   0.441
  102WAT     H2  849   1.819   0.782   0.299
  103WAT      O  850   0.488   1.385   0.174
  103WAT     H1  851   0.401   1.370   0.221
  103WAT     H2  852   0.471   1.411   0.079
  104WAT      O  853   1.664   1.280   0.657
  104WAT     H1  854   1.763   1.288   0.671
  104WAT     H2  855   1.619   1.364   0.688
  105WAT      O  856   1.390   0.575   0.078
  105WAT     H1  857   1.336   0.554   0.159
  105WAT     H2  858   1.481   0.534   0.087
  106WAT      O  859   0.527   0.256   0.328
  106WAT     H1  860   0.554   0.197   0.253
  106WAT     H2  861   0.527   0.351   0.297
  107WAT      O  862   1.754   1.223   1.588
  107WAT     H1  863   1.845   1.184   1.575
  107WAT     H2  864   1.762   1.319   1.612
  108WAT      O  865   1.064   1.347   1.340
  108WAT     H1  866   0.984   1.324   1.395
  108WAT     H2  867   1.147   1.321   1.389
  109WAT      O  868   1.592   1.629   1.625
  109WAT     H1  869   1.619   1.663   1.535
  109WAT     H2  870   1.671   1.591   1.671
  110WAT      O  871   1.111   1.195   1.100
  110WAT     H1  872   1.071   1.239   1.181
  110WAT     H2  873   1.070   1.232   1.017
  111WAT      O  874   1.638   1.099   1.079
  111WAT     H1  875   1.643   1.180   1.138
  111WAT     H2  876   1.552   1.101   1.028
  112WAT      O  877   0.915   0.089   1.402
  112WAT     H1  878   0.940   0.069   1.307
  112WAT     H2  879   0.987   0.145   1.444
  113WAT      O  880   0.980   1.116   1.719
  113WAT     H1  881   0.881   1.122   1.729
  113WAT     H2  882   1.003   1.036   1.663
  114WAT      O  883   0.705   1.050   0.368
  114WAT     H1  884   0.691   1.057   0.467
  114WAT     H2  885   0.789   0.999   0.350
  115WAT      O  886   0.410   0.813   1.251
  115WAT     H1  887   0.496   0.825   1.301
  115WAT     H2  888   0.368   0.726   1.278
  116WAT      O  889   1.274   0.386   1.262
  116WAT     H1  890   1.295   0.460   1.326
  116WAT     H2  891   1.185   0.403   1.219
  117WAT      O  892   0.064   1.564   1.331
  117WAT     H1  893   0.018   1.646   1.297
  117WAT     H2  894   0.162   1.583   1.340
  118WAT      O  895   0.367   1.100   0.501
  118WAT     H1  896   0.360   1.183   0.445
  118WAT     H2  897   0.371   1.020   0.441
  119WAT      O  898   0.566   0.537   0.865
  119WAT     H1  899   0.578   0.603   0.791
  119WAT     H2  900   0.612   0.571   0.948
  120WAT      O  901   1.252   1.348   0.388
  120WAT     H1  902   1.302   1.425   0.428
  120WAT     H2  903   1.157   1.350   0.420
  121WAT      O  904   1.272   1.445   1.142
  121WAT     H1  905   1.319   1.458   1.229
  121WAT     H2  906   1.206   1.371   1.151
  122WAT      O  907   1.582   0.639   0.472
  122WAT     H1  908   1.551   0.700   0.545
  122WAT     H2  909   1.632   0.691   0.403
  123WAT      O  910   0.354   1.510   1.329
  123WAT     H1  911   0.333   1.466   1.242
  123WAT     H2  912   0.451   1.536   1.332
  124WAT      O  913   0.402   0.751   1.598
  124WAT     H1  914   0.470   0.806   1.551
  124WAT     H2  915   0.442   0.663   1.625
  125WAT      O  916   1.587   0.779   1.670
  125WAT     H1  917   1.495   0.817   1.665
  125WAT     H2  918   1.647   0.826   1.605
  126WAT      O  919   1.013   0.105   1.770
  126WAT     H1  920   1.019   0.190   1.718
  126WAT     H2  921   1.045   0.029   1.713
  127WAT      O  922   0.504   0.050   1.740
  127WAT     H1  923   0.462  -0.007   1.670
  127WAT     H2  924   0.438   0.119   1.772
  128WAT      O  925   0.573   0.870   1.029
  128WAT     H1  926   0.617   0.959   1.020
  128WAT     H2  927   0.510   0.870   1.106
  129WAT      O  928   1.360   0.862   1.045
  129WAT     H1  929   1.285   0.862   0.979
  129WAT     H2  930   1.397   0.770   1.054
  130WAT      O  931   1.209   0.525   0.275
  130WAT     H1  932   1.222   0.441   0.329
  130WAT     H2  933   1.180   0.599   0.335
  131WAT      O  934   0.307   0.213   1.231
  131WAT     H1  935   0.284   0.250   1.321
  131WAT     H2  936   0.277   0.118   1.225
  132WAT      O  937   0.037   1.310   1.282
  132WAT     H1  938   0.090   1.261   1.350
  132WAT     H2  939   0.059   1.408   1.287
  133WAT      O  940   0.732   0.634   1.064
  133WAT     H1  941   0.791   0.608   0.988
  133WAT     H2  942   0.704   0.730   1.053
  134WAT      O  943   1.728   0.935   1.854
  134WAT     H1  944   1.682   0.928   1.765
  134WAT     H2  945   1.666   0.979   1.920
  135WAT      O  946   0.307   0.063   0.618
  135WAT     H1  947   0.296   0.157   0.651
  135WAT     H2  948   0.302   0.000   0.695
  136WAT      O  949   1.622   0.367   0.374
  136WAT     H1  950   1.624   0.291   0.438
  136WAT     H2  951   1.574   0.444   0.414
  137WAT      O  952   1.023   0.766   0.966
  137WAT     H1  953   1.038   0.787   1.062
  137WAT     H2  954   0.993   0.671   0.957
  138WAT      O  955   0.980   1.573   1.700
  138WAT     H1  956   0.960   1.617   1.612
  138WAT     H2  957   1.019   1.482   1.684
  139WAT      O  958   1.859   1.518   1.605
  139WAT     H1  959   1.873   1.545   1.510
  139WAT     H2  960   1.942   1.540   1.658
  140WAT      O  961   0.350   0.898   1.804
  140WAT     H1  962   0.426   0.942   1.852
  140WAT     H2  963   0.385   0.851   1.722
  141WAT      O  964   1.540   0.274   0.125
  141WAT     H1  965   1.479   0.199   0.148
  141WAT     H2  966   1.562   0.326   0.208
  142WAT      O  967   1.303   0.838   0.042
  142WAT     H1  968   1.337   0.745   0.057
  142WAT     H2  969   1.321   0.865  -0.053
  143WAT      O  970   1.068   1.333   0.849
  143WAT     H1  971   1.075   1.249   0.794
  143WAT     H2  972   1.130   1.402   0.813
  144WAT      O  973   0.319   0.810   0.949
  144WAT     H1  974   0.412   0.846   0.954
  144WAT     H2  975   0.313   0.725   1.001
  145WAT      O  976   0.339   0.509   1.006
  145WAT     H1  977   0.287   0.426   0.989
  145WAT     H2  978   0.416   0.514   0.942
  146WAT      O  979   1.138   0.380   1.678
  146WAT     H1  980   1.093   0.443   1.742
  146WAT     H2  981   1.231   0.411   1.661
  147WAT      O  982   1.160   0.207   1.477
  147WAT     H1  983   1.160   0.271   1.554
  147WAT     H2  984   1.188   0.255   1.394
  148WAT      O  985   0.008   1.326   0.200
  148WAT     H1  986  -0.085   1.347   0.169
  148WAT     H2  987   0.018   1.227   0.213
  149WAT      O  988   0.088   1.801   0.927
  149WAT     H1  989   0.046   1.715   0.900
  149WAT     H2  990   0.182   1.804   0.893
  150WAT      O  991   0.504   1.568   0.910
  150WAT     H1  992   0.570   1.642   0.919
  150WAT     H2  993   0.548   1.489   0.868
  151WAT      O  994   1.002   0.796   1.238
  151WAT     H1  995   1.043   0.764   1.324
  151WAT     H2  996   0.906   0.769   1.235
  152WAT      O  997   0.040   0.544   1.114
  152WAT     H1  998   0.125   0.511   1.073
  152WAT     H2  999   0.053   0.559   1.212
  153WAT      O 1000   0.189   0.520   1.722
  153WAT     H1 1001   0.248   0.480   1.652
  153WAT     H2 1002   0.131   0.591   1.681
  154WAT      O 1003   1.369   0.950   1.660
  154WAT     H1 1004   1.408   1.039   1.680
  154WAT     H2 1005   1.379   0.930   1.563
  155WAT      O 1006   0.815   0.572   0.325
  155WAT     H1 1007   0.822   0.483   0.279
  155WAT     H2 1008   0.721   0.606   0.317
  156WAT      O 1009   1.657   0.604   1.206
  156WAT     H1 1010   1.619   0.535   1.268
  156WAT     H2 1011   1.739   0.568   1.162
  157WAT      O 1012   0.252   1.564   1.744
  157WAT     H1 1013   0.222   1.621   1.820
  157WAT     H2 1014   0.245   1.467   1.770
  158WAT      O 1015   0.671   0.464   1.269
  158WAT     H1 1016   0.637   0.375   1.239
  158WAT     H2 1017   0.697   0.518   1.189
  159WAT      O 1018   0.930   1.678   1.465
  159WAT     H1 1019   0.906   1.660   1.370
  159WAT     H2 1020   0.960   1.772   1.475
  160WAT      O 1021   0.473   0.500   0.191
  160WAT     H1 1022   0.534   0.580   0.195
  160WAT     H2 1023   0.378   0.531   0.198
  161WAT      O 1024   0.159   1.137   1.466
  161WAT     H1 1025   0.181   1.076   1.542
  161WAT     H2 1026   0.169   1.088   1.380
  162WAT      O 1027   1.347   1.059   1.234
  162WAT     H1 1028   1.371   0.996   1.160
  162WAT     H2 1029   1.257   1.099   1.216
  163WAT      O 1030   1.302   0.855   0.309
  163WAT     H1 1031   1.216   0.824   0.351
  163WAT     H2 1032   1.298   0.841   0.210
  164WAT      O 1033   1.759   1.747   1.154
  164WAT     H1 1034   1.820   1.777   1.081
  164WAT     H2 1035   1.721   1.658   1.132
  165WAT      O 1036   1.252   1.731   1.128
  165WAT     H1 1037   1.336   1.736   1.074
  165WAT     H2 1038   1.229   1.635   1.146
  166WAT      O 1039   0.083   1.258   1.022
  166WAT     H1 1040   0.078   1.257   1.122
  166WAT     H2 1041   0.000   1.217   0.984
  167WAT      O 1042   0.688   1.662   1.716
  167WAT     H1 1043   0.632   1.743   1.725
  167WAT     H2 1044   0.740   1.666   1.630
  168WAT      O 1045   0.903   0.086   0.133
  168WAT     H1 1046   0.954   0.087   0.047
  168WAT     H2 1047   0.959   0.044   0.204
  169WAT      O 1048   1.726   0.135   0.523
  169WAT     H1 1049   1.799   0.118   0.456
  169WAT     H2 1050   1.695   0.048   0.561
  170WAT      O 1051   1.388   1.573   0.477
  170WAT     H1 1052   1.455   1.585   0.403
  170WAT     H2 1053   1.348   1.662   0.500
  171WAT      O 1054   0.130   1.794   1.851
  171WAT     H1 1055   0.089   1.720   1.904
  171WAT     H2 1056   0.194   1.845   1.909
  172WAT      O 1057   1.280   0.927   0.672
  172WAT     H1 1058   1.340   0.846   0.674
  172WAT     H2 1059   1.320   0.996   0.612
  173WAT      O 1060   0.830   1.273   1.422
  173WAT     H1 1061   0.825   1.306   1.517
  173WAT     H2 1062   0.744   1.292   1.376
  174WAT      O 1063   0.672   1.616   0.154
  174WAT     H1 1064   0.681   1.626   0.055
  174WAT     H2 1065   0.632   1.527   0.175
  175WAT      O 1066   1.650   1.720   1.394
  175WAT     H1 1067   1.703   1.730   1.310
  175WAT     H2 1068   1.623   1.810   1.428
  176WAT      O 1069   1.841   0.175   0.963
  176WAT     H1 1070   1.880   0.090   0.927
  176WAT     H2 1071   1.743   0.177   0.944
  177WAT      O 1072   0.263   0.326   0.720
  177WAT     H1 1073   0.184   0.377   0.686
  177WAT     H2 1074   0.254   0.311   0.818
  178WAT      O 1075   1.194   1.612   0.031
  178WAT     H1 1076   1.200   1.519   0.068
  178WAT     H2 1077   1.135   1.612  -0.049
  179WAT      O 1078   0.822   1.002   1.372
  179WAT     H1 1079   0.862   1.001   1.280
  179WAT     H2 1080   0.832   1.094   1.412
  180WAT      O 1081   0.916   0.910   0.291
  180WAT     H1 1082   0.979   0.948   0.223
  180WAT     H2 1083   0.956   0.827   0.330
  181WAT      O 1084   1.504   1.607   0.044
  181WAT     H1 1085   1.412   1.644   0.051
  181WAT     H2 1086   1.542   1.627  -0.046
  182WAT      O 1087   0.372   1.288   1.490
  182WAT     H1 1088   0.359   1.381   1.456
  182WAT     H2 1089   0.288   1.236   1.477
  183WAT      O 1090   1.614   1.292   1.289
  183WAT     H1 1091   1.674   1.295   1.369
  183WAT     H2 1092   1.539   1.356   1.302
  184WAT      O 1093   1.039   1.098   0.696
  184WAT     H1 1094   0.969   1.051   0.750
  184WAT     H2 1095   1.098   1.030   0.653
  185WAT      O 1096   1.014   0.236   0.971
  185WAT     H1 1097   1.006   0.200   0.878
  185WAT     H2 1098   1.012   0.160   1.036
  186WAT      O 1099   0.590   1.487   0.491
  186WAT     H1 1100   0.632   1.429   0.421
  186WAT     H2 1101   0.546   1.566   0.447
  187WAT      O 1102   1.709   0.385   1.381
  187WAT     H1 1103   1.782   0.454   1.385
  187WAT     H2 1104   1.737   0.310   1.322
  188WAT      O 1105   0.255   1.348   0.290
  188WAT     H1 1106   0.159   1.349   0.263
  188WAT     H2 1107   0.267   1.401   0.374
  189WAT      O 1108   0.105   1.013   1.726
  189WAT     H1 1109   0.028   0.980   1.780
  189WAT     H2 1110   0.190   0.983   1.768
  190WAT      O 1111   0.672   0.203   1.489
  190WAT     H1 1112   0.762   0.187   1.449
  190WAT     H2 1113   0.680   0.208   1.588
  191WAT      O 1114   0.075   0.345   0.033
  191WAT     H1 1115  -0.017   0.317   0.004
  191WAT     H2 1116   0.106   0.422  -0.023
  192WAT      O 1117   1.440   0.856   1.398
  192WAT     H1 1118   1.383   0.908   1.335
  192WAT     H2 1119   1.536   0.868   1.374
  193WAT      O 1120   0.072   0.166   0.318
  193WAT     H1 1121   0.055   0.249   0.264
  193WAT     H2 1122   0.162   0.129   0.296
  194WAT      O 1123   1.183   1.335   0.119
  194WAT     H1 1124   1.084   1.324   0.121
  194WAT     H2 1125   1.217   1.350   0.212
  195WAT      O 1126   0.613   0.842   1.431
  195WAT     H1 1127   0.669   0.923   1.414
  195WAT     H2 1128   0.672   0.762   1.434
  196WAT      O 1129   1.493   1.767   0.959
  196WAT     H1 1130   1.526   1.831   0.890
  196WAT     H2 1131   1.559   1.761   1.034
  197WAT      O 1132   0.716   0.565   1.708
  197WAT     H1 1133   0.735   0.630   1.782
  197WAT     H2 1134   0.776   0.485   1.717
  198WAT      O 1135   1.450   1.220   1.633
  198WAT     H1 1136   1.441   1.210   1.732
  198WAT     H2 1137   1.546   1.213   1.607
  199WAT      O 1138   0.390   1.741   1.560
  199WAT     H1 1139   0.299   1.782   1.558
  199WAT     H2 1140   0.383   1.647   1.592
  200WAT      O 1141   1.674   0.883   1.254
  200WAT     H1 1142   1.647   0.794   1.217
  200WAT     H2 1143   1.675   0.951   1.181
  201WAT      O 1144   1.225   0.325   0.449
  201WAT     H1 1145   1.290   0.251   0.438
  201WAT     H2 1146   1.245   0.375   0.533
  202WAT      O 1147   0.594   0.745   0.652
  202WAT     H1 1148   0.644   0.830   0.633
  202WAT     H2 1149   0.506   0.747   0.604
  203WAT      O 1150   1.777   0.342   1.642
  203WAT     H1 1151   1.760   0.373   1.548
  203WAT     H2 1152   1.693   0.305   1.680
  204WAT      O 1153   1.730   0.934   1.517
  204WAT     H1 1154   1.768   1.025   1.532
  204WAT     H2 1155   1.722   0.917   1.418
  205WAT      O 1156   0.859   1.374   0.016
  205WAT     H1 1157   0.813   1.389   0.104
  205WAT     H2 1158   0.903   1.459  -0.014
  206WAT      O 1159   0.661   1.790   0.953
  206WAT     H1 1160   0.615   1.878   0.940
  206WAT     H2 1161   0.760   1.802   0.946
  207WAT      O 1162   0.859   0.956   0.861
  207WAT     H1 1163   0.913   0.887   0.909
  207WAT     H2 1164   0.827   1.025   0.927
  208WAT      O 1165   1.083   0.984   0.087
  208WAT     H1 1166   1.060   1.037   0.005
  208WAT     H2 1167   1.164   0.928   0.068
  209WAT      O 1168   1.861   1.569   0.851
  209WAT     H1 1169   1.790   1.557   0.781
  209WAT     H2 1170   1.862   1.490   0.911
  210WAT      O 1171   0.221   1.314   1.844
  210WAT     H1 1172   0.156   1.241   1.823
  210WAT     H2 1173   0.225   1.328   1.942
  211WAT      O 1174   0.079   1.240   0.653
  211WAT     H1 1175   0.078   1.193   0.741
  211WAT     H2 1176   0.161   1.212   0.602
  212WAT      O 1177   0.672   1.391   1.624
  212WAT     H1 1178   0.594   1.341   1.662
  212WAT     H2 1179   0.669   1.486   1.655
  213WAT      O 1180   1.824   0.192   1.227
  213WAT     H1 1181   1.820   0.102   1.271
  213WAT     H2 1182   1.827   0.181   1.128
  214WAT      O 1183   0.428   0.424   0.520
  214WAT     H1 1184   0.458   0.352   0.458
  214WAT     H2 1185   0.389   0.384   0.603
  215WAT      O 1186   1.705   1.487   1.104
  215WAT     H1 1187   1.612   1.462   1.077
  215WAT     H2 1188   1.731   1.437   1.186
  216WAT      O 1189   0.317   0.547   1.280
  216WAT     H1 1190   0.355   0.488   1.352
  216WAT     H2 1191   0.357   0.521   1.192
  217WAT      O 1192   0.812   1.586   0.687
  217WAT     H1 1193   0.844   1.596   0.593
  217WAT     H2 1194   0.733   1.524   0.689
  218WAT      O 1195   1.424   0.214   1.112
  218WAT     H1 1196   1.476   0.149   1.167
  218WAT     H2 1197   1.375   0.277   1.173
  219WAT      O 1198   1.001   0.034   1.154
  219WAT     H1 1199   0.938  -0.038   1.123
  219WAT     H2 1200   1.094  -0.002   1.154
  220WAT      O 1201   0.770   1.330   0.301
  220WAT     H1 1202   0.724   1.243   0.318
  220WAT     H2 1203   0.861   1.327   0.342
  221WAT      O 1204   0.618   1.567   1.284
  221WAT     H1 1205   0.613   1.649   1.341
  221WAT     H2 1206   0.707   1.564   1.239
  222WAT      O 1207   1.352   0.052   0.168
  222WAT     H1 1208   1.387   0.011   0.084
  222WAT     H2 1209   1.262   0.014   0.188
  223WAT      O 1210   1.300   0.453   0.691
  223WAT     H1 1211   1.241   0.533   0.695
  223WAT     H2 1212   1.315   0.418   0.784
  224WAT      O 1213   1.593   0.221   0.882
  224WAT     H1 1214   1.509   0.220   0.936
  224WAT     H2 1215   1.595   0.304   0.826
  225WAT      O 1216   0.039   1.077   0.300
  225WAT     H1 1217   0.138   1.066   0.291
  225WAT     H2 1218  -0.001   0.991   0.332
  226WAT      O 1219   0.875   1.646   0.337
  226WAT     H1 1220   0.798   1.611   0.283
  226WAT     H2 1221   0.843   1.717   0.399
  227WAT      O 1222   0.230   0.628   1.975
  227WAT     H1 1223   0.137   0.626   2.012
  227WAT     H2 1224   0.231   0.589   1.883
  228WAT      O 1225   0.225   0.275   2.858
  228WAT     H1 1226   0.260   0.258   2.950
  228WAT     H2 1227   0.137   0.230   2.846
  229WAT      O 1228   0.019   0.368   2.509
  229WAT     H1 1229  -0.063   0.411   2.548
  229WAT     H2 1230  -0.009   0.295   2.446
  230WAT      O 1231   0.569   1.275   3.027
  230WAT     H1 1232   0.476   1.268   2.990
  230WAT     H2 1233   0.580   1.364   3.071
  231WAT      O 1234   1.555   1.511   2.565
  231WAT     H1 1235   1.498   1.495   2.646
  231WAT     H2 1236   1.496   1.521   2.485
  232WAT      O 1237   1.135   0.703   2.579
  232WAT     H1 1238   1.192   0.781   2.554
  232WAT     H2 1239   1.075   0.729   2.655
  233WAT      O 1240   1.755   0.607   2.093
  233WAT     H1 1241   1.743   0.594   1.994
  233WAT     H2 1242   1.725   0.526   2.142
  234WAT      O 1243   0.768   1.144   2.885
  234WAT     H1 1244   0.690   1.161   2.945
  234WAT     H2 1245   0.802   1.231   2.849
  235WAT      O 1246   0.850   0.798   3.685
  235WAT     H1 1247   0.846   0.874   3.750
  235WAT     H2 1248   0.872   0.834   3.594
  236WAT      O 1249   0.685   1.012   2.527
  236WAT     H1 1250   0.754   0.996   2.597
  236WAT     H2 1251   0.612   1.069   2.565
  237WAT      O 1252   0.686   1.161   3.665
  237WAT     H1 1253   0.746   1.240   3.679
  237WAT     H2 1254   0.600   1.192   3.624
  238WAT      O 1255   0.335   1.435   2.923
  238WAT     H1 1256   0.257   1.404   2.870
  238WAT     H2 1257   0.393   1.493   2.866
  239WAT      O 1258   1.460   1.505   3.201
  239WAT     H1 1259   1.484   1.599   3.227
  239WAT     H2 1260   1.444   1.451   3.283
  240WAT      O 1261   0.438   0.392   3.361
  240WAT     H1 1262   0.520   0.336   3.370
  240WAT     H2 1263   0.357   0.334   3.365
  241WAT      O 1264   1.603   0.447   2.599
  241WAT     H1 1265   1.529   0.493   2.549
  241WAT     H2 1266   1.654   0.515   2.652
  242WAT      O 1267   0.231   1.713   2.345
  242WAT     H1 1268   0.265   1.790   2.399
  242WAT     H2 1269   0.275   1.713   2.255
  243WAT      O 1270   1.127   1.341   3.552
  243WAT     H1 1271   1.174   1.341   3.640
  243WAT     H2 1272   1.079   1.254   3.541
  244WAT      O 1273   0.230   1.434   2.400
  244WAT     H1 1274   0.204   1.530   2.400
  244WAT     H2 1275   0.159   1.380   2.445
  245WAT      O 1276   0.240   1.091   2.748
  245WAT     H1 1277   0.254   1.007   2.800
  245WAT     H2 1278   0.185   1.155   2.803
  246WAT      O 1279   0.620   1.786   3.301
  246WAT     H1 1280   0.528   1.769   3.336
  246WAT     H2 1281   0.648   1.878   3.327
  247WAT      O 1282   0.606   0.964   1.985
  247WAT     H1 1283   0.613   1.048   1.931
  247WAT     H2 1284   0.652   0.977   2.073
  248WAT      O 1285   1.594   0.114   3.342
  248WAT     H1 1286   1.576   0.181   3.270
  248WAT     H2 1287   1.591   0.160   3.431
  249WAT      O 1288   0.122   0.643   2.425
  249WAT     H1 1289   0.077   0.555   2.442
  249WAT     H2 1290   0.121   0.697   2.509
  250WAT      O 1291   1.842   1.767   2.221
  250WAT     H1 1292   1.896   1.738   2.301
  250WAT     H2 1293   1.872   1.857   2.192
  251WAT      O 1294   0.027   1.596   1.979
  251WAT     H1 1295   0.008   1.500   2.000
  251WAT     H2 1296  -0.006   1.654   2.054
  252WAT      O 1297   1.689   0.922   2.474
  252WAT     H1 1298   1.784   0.893   2.482
  252WAT     H2 1299   1.681   0.987   2.399
  253WAT      O 1300   1.641   1.108   2.294
  253WAT     H1 1301   1.727   1.110   2.242
  253WAT     H2 1302   1.655   1.155   2.382
  254WAT      O 1303   0.113   0.737   3.459
  254WAT     H1 1304   0.201   0.724   3.504
  254WAT     H2 1305   0.100   0.834   3.437
  255WAT      O 1306   0.613   1.365   2.588
  255WAT     H1 1307   0.564   1.278   2.597
  255WAT     H2 1308   0.590   1.408   2.501
  256WAT      O 1309   1.293   1.228   3.285
  256WAT     H1 1310   1.330   1.155   3.227
  256WAT     H2 1311   1.345   1.233   3.370
  257WAT      O 1312   0.809   0.004   2.364
  257WAT     H1 1313   0.849   0.095   2.355
  257WAT     H2 1314   0.709   0.012   2.370
  258WAT      O 1315   0.197   0.976   3.126
  258WAT     H1 1316   0.286   0.931   3.112
  258WAT     H2 1317   0.124   0.911   3.107
  259WAT      O 1318   1.525   0.999   2.052
  259WAT     H1 1319   1.462   0.923   2.065
  259WAT     H2 1320   1.573   1.017   2.138
  260WAT      O 1321   1.187   1.792   3.478
  260WAT     H1 1322   1.211   1.852   3.402
  260WAT     H2 1323   1.194   1.697   3.448
  261WAT      O 1324   0.317   0.251   3.663
  261WAT     H1 1325   0.388   0.322   3.669
  261WAT     H2 1326   0.229   0.290   3.691
  262WAT      O 1327   1.466   1.417   2.815
  262WAT     H1 1328   1.407   1.423   2.895
  262WAT     H2 1329   1.451   1.329   2.769
  263WAT      O 1330   1.667   1.714   2.434
  263WAT     H1 1331   1.626   1.691   2.346
  263WAT     H2 1332   1.649   1.640   2.499
  264WAT      O 1333   0.598   0.729   2.132
  264WAT     H1 1334   0.622   0.798   2.064
  264WAT     H2 1335   0.520   0.762   2.186
  265WAT      O 1336   1.281   0.345   2.806
  265WAT     H1 1337   1.195   0.295   2.793
  265WAT     H2 1338   1.343   0.291   2.862
  266WAT      O 1339   1.576   1.662   2.169
  266WAT     H1 1340   1.665   1.708   2.172
  266WAT     H2 1341   1.555   1.638   2.074
  267WAT      O 1342   0.807   0.605   3.327
  267WAT     H1 1343   0.760   0.602   3.416
  267WAT     H2 1344   0.756   0.550   3.261
  268WAT      O 1345   1.394   0.469   3.536
  268WAT     H1 1346   1.374   0.512   3.624
  268WAT     H2 1347   1.472   0.407   3.545
  269WAT      O 1348   0.973   0.890   3.434
  269WAT     H1 1349   1.019   0.806   3.405
  269WAT     H2 1350   0.917   0.924   3.359
  270WAT      O 1351   0.991   0.410   3.104
  270WAT     H1 1352   0.914   0.444   3.158
  270WAT     H2 1353   0.957   0.359   3.025
  271WAT      O 1354   1.041   0.701   2.291
  271WAT     H1 1355   1.067   0.697   2.387
  271WAT     H2 1356   0.956   0.650   2.277
  272WAT      O 1357   0.076   0.811   2.651
  272WAT     H1 1358   0.175   0.799   2.660
  272WAT     H2 1359   0.052   0.906   2.672
  273WAT      O 1360   0.130   1.821   3.433
  273WAT     H1 1361   0.120   1.806   3.532
  273WAT     H2 1362   0.044   1.857   3.397
  274WAT      O 1363   0.865   0.348   2.057
  274WAT     H1 1364   0.924   0.411   2.008
  274WAT     H2 1365   0.884   0.254   2.028
  275WAT      O 1366   1.719   0.585   3.693
  275WAT     H1 1367   1.693   0.674   3.657
  275WAT     H2 1368   1.717   0.517   3.620
  276WAT      O 1369   1.362   1.144   2.407
  276WAT     H1 1370   1.445   1.115   2.359
  276WAT     H2 1371   1.313   1.211   2.351
  277WAT      O 1372   0.550   0.196   2.747
  277WAT     H1 1373   0.545   0.191   2.847
  277WAT     H2 1374   0.552   0.292   2.718
  278WAT      O 1375   1.008   1.456   2.339
  278WAT     H1 1376   0.962   1.528   2.287
  278WAT     H2 1377   1.004   1.476   2.437
  279WAT      O 1378   0.351   1.801   2.715
  279WAT     H1 1379   0.401   1.715   2.721
  279WAT     H2 1380   0.416   1.878   2.712
  280WAT      O 1381   1.795   1.066   2.735
  280WAT     H1 1382   1.733   1.051   2.659
  280WAT     H2 1383   1.743   1.077   2.820
  281WAT      O 1384   1.227   1.550   3.368
  281WAT     H1 1385   1.233   1.473   3.432
  281WAT     H2 1386   1.175   1.524   3.288
  282WAT      O 1387   0.321   0.943   2.104
  282WAT     H1 1388   0.403   0.982   2.062
  282WAT     H2 1389   0.294   0.861   2.055
  283WAT      O 1390   1.458   0.735   2.590
  283WAT     H1 1391   1.453   0.670   2.665
  283WAT     H2 1392   1.538   0.794   2.603
  284WAT      O 1393   0.461   1.266   3.589
  284WAT     H1 1394   0.411   1.267   3.503
  284WAT     H2 1395   0.398   1.248   3.665
  285WAT      O 1396   1.111   1.776   2.099
  285WAT     H1 1397   1.051   1.714   2.149
  285WAT     H2 1398   1.142   1.732   2.014
  286WAT      O 1399   0.202   0.285   3.360
  286WAT     H1 1400   0.122   0.345   3.347
  286WAT     H2 1401   0.192   0.236   3.446
  287WAT      O 1402   1.632   1.377   1.943
  287WAT     H1 1403   1.600   1.471   1.933
  287WAT     H2 1404   1.556   1.314   1.931
  288WAT      O 1405   0.464   1.743   2.185
  288WAT     H1 1406   0.497   1.782   2.271
  288WAT     H2 1407   0.540   1.736   2.120
  289WAT      O 1408   1.400   0.107   2.288
  289WAT     H1 1409   1.376   0.070   2.198
  289WAT     H2 1410   1.499   0.123   2.292
  290WAT      O 1411   0.249   1.785   3.103
  290WAT     H1 1412   0.306   1.720   3.153
  290WAT     H2 1413   0.233   1.752   3.010
  291WAT      O 1414   0.940   1.698   2.766
  291WAT     H1 1415   1.020   1.641   2.787
  291WAT     H2 1416   0.891   1.658   2.689
  292WAT      O 1417   0.382   0.700   2.342
  292WAT     H1 1418   0.427   0.610   2.339
  292WAT     H2 1419   0.288   0.689   2.375
  293WAT      O 1420   1.547   0.222   3.591
  293WAT     H1 1421   1.542   0.259   3.683
  293WAT     H2 1422   1.475   0.153   3.579
  294WAT      O 1423   0.614   0.122   1.979
  294WAT     H1 1424   0.712   0.100   1.986
  294WAT     H2 1425   0.583   0.105   1.886
  295WAT      O 1426   0.781   0.264   3.611
  295WAT     H1 1427   0.848   0.203   3.654
  295WAT     H2 1428   0.708   0.283   3.676
  296WAT      O 1429   0.888   1.514   3.057
  296WAT     H1 1430   0.865   1.489   2.963
  296WAT     H2 1431   0.949   1.445   3.096
  297WAT      O 1432   1.351   0.590   3.295
  297WAT     H1 1433   1.379   0.547   3.380
  297WAT     H2 1434   1.376   0.686   3.296
  298WAT      O 1435   0.803   1.402   2.786
  298WAT     H1 1436   0.893   1.416   2.744
  298WAT     H2 1437   0.732   1.404   2.715
  299WAT      O 1438   0.922   0.503   2.761
  299WAT     H1 1439   0.897   0.494   2.665
  299WAT     H2 1440   0.970   0.421   2.792
  300WAT      O 1441   0.539   0.064   2.374
  300WAT     H1 1442   0.458   0.065   2.432
  300WAT     H2 1443   0.542   0.147   2.319
  301WAT      O 1444   1.434   1.188   1.903
  301WAT     H1 1445   1.466   1.112   1.960
  301WAT     H2 1446   1.342   1.215   1.933
  302WAT      O 1447   0.297   0.035   2.033
  302WAT     H1 1448   0.346   0.119   2.012
  302WAT     H2 1449   0.359  -0.030   2.078
  303WAT      O 1450   0.935   0.236   2.342
  303WAT     H1 1451   0.887   0.277   2.264
  303WAT     H2 1452   1.034   0.234   2.323
  304WAT      O 1453   1.076   0.683   3.326
  304WAT     H1 1454   0.996   0.622   3.329
  304WAT     H2 1455   1.157   0.630   3.302
  305WAT      O 1456   1.227   1.570   2.655
  305WAT     H1 1457   1.248   1.644   2.590
  305WAT     H2 1458   1.295   1.570   2.728
  306WAT      O 1459   0.459   1.152   2.603
  306WAT     H1 1460   0.388   1.125   2.668
  306WAT     H2 1461   0.433   1.124   2.510
  307WAT      O 1462   1.271   1.797   2.453
  307WAT     H1 1463   1.315   1.861   2.389
  307WAT     H2 1464   1.221   1.849   2.523
  308WAT      O 1465   1.032   0.549   1.878
  308WAT     H1 1466   0.991   0.631   1.839
  308WAT     H2 1467   1.096   0.575   1.951
  309WAT      O 1468   0.078   0.556   3.248
  309WAT     H1 1469   0.170   0.555   3.207
  309WAT     H2 1470   0.072   0.630   3.315
  310WAT      O 1471   0.561   0.222   3.009
  310WAT     H1 1472   0.599   0.138   3.046
  310WAT     H2 1473   0.473   0.241   3.053
  311WAT      O 1474   0.866   0.454   2.504
  311WAT     H1 1475   0.834   0.526   2.442
  311WAT     H2 1476   0.890   0.373   2.451
  312WAT      O 1477   1.017   0.039   2.615
  312WAT     H1 1478   0.945   0.044   2.546
  312WAT     H2 1479   0.993  -0.030   2.684
  313WAT      O 1480   1.429   1.173   2.729
  313WAT     H1 1481   1.374   1.089   2.722
  313WAT     H2 1482   1.455   1.202   2.637
  314WAT      O 1483   1.466   0.590   2.854
  314WAT     H1 1484   1.436   0.495   2.861
  314WAT     H2 1485   1.539   0.606   2.920
  315WAT      O 1486   1.857   0.833   2.239
  315WAT     H1 1487   1.899   0.769   2.303
  315WAT     H2 1488   1.819   0.782   2.161
  316WAT      O 1489   0.488   1.385   2.036
  316WAT     H1 1490   0.401   1.370   2.083
  316WAT     H2 1491   0.471   1.411   1.941
  317WAT      O 1492   1.664   1.280   2.519
  317WAT     H1 1493   1.763   1.288   2.533
  317WAT     H2 1494   1.619   1.364   2.550
  318WAT      O 1495   1.390   0.575   1.940
  318WAT     H1 1496   1.336   0.554   2.021
  318WAT     H2 1497   1.481   0.534   1.949
  319WAT      O 1498   0.527   0.256   2.190
  319WAT     H1 1499   0.554   0.197   2.115
  319WAT     H2 1500   0.527   0.351   2.159
  320WAT      O 1501   1.754   1.223   3.450
  320WAT     H1 1502   1.845   1.184   3.437
  320WAT     H2 1503   1.762   1.319   3.474
  321WAT      O 1504   1.064   1.347   3.202
  321WAT     H1 1505   0.984   1.324   3.257
  321WAT     H2 1506   1.147   1.321   3.251
  322WAT      O 1507   1.592   1.629   3.487
  322WAT     H1 1508   1.619   1.663   3.397
  322WAT     H2 1509   1.671   1.591   3.533
  323WAT      O 1510   1.111   1.195   2.962
  323WAT     H1 1511   1.071   1.239   3.043
  323WAT     H2 1512   1.070   1.232   2.879
  324WAT      O 1513   1.638   1.099   2.941
  324WAT     H1 1514   1.643   1.180   3.000
  324WAT     H2 1515   1.552   1.101   2.890
  325WAT      O 1516   0.915   0.089   3.264
  325WAT     H1 1517   0.940   0.069   3.169
  325WAT     H2 1518   0.987   0.145   3.306
  326WAT      O 1519   0.980   1.116   3.581
  326WAT     H1 1520   0.881   1.122   3.591
  326WAT     H2 1521   1.003   1.036   3.525
  327WAT      O 1522   0.705   1.050   2.230
  327WAT     H1 1523   0.691   1.057   2.329
  327WAT     H2 1524   0.789   0.999   2.212
  328WAT      O 1525   0.410   0.813   3.113
  328WAT     H1 1526   0.496   0.825   3.163
  328WAT     H2 1527   0.368   0.726   3.140
  329WAT      O 1528   1.274   0.386   3.124
  329WAT     H1 1529   1.295   0.460   3.188
  329WAT     H2 1530   1.185   0.403   3.081
  330WAT      O 1531   0.064   1.564   3.193
  330WAT     H1 1532   0.018   1.646   3.159
  330WAT     H2 1533   0.162   1.583   3.202
  331WAT      O 1534   0.367   1.100   2.363
  331WAT     H1 1535   0.360   1.183   2.307
  331WAT     H2 1536   0.371   1.020   2.303
  332WAT      O 1537   0.566   0.537   2.727
  332WAT     H1 1538   0.578   0.603   2.653
  332WAT     H2 1539   0.612   0.571   2.810
  333WAT      O 1540   1.252   1.348   2.250
  333WAT     H1 1541   1.302   1.425   2.290
  333WAT     H2 1542   1.157   1.350   2.282
  334WAT      O 1543   1.272   1.445   3.004
  334WAT     H1 1544   1.319   1.458   3.091
  334WAT     H2 1545   1.206   1.371   3.013
  335WAT      O 1546   1.582   0.639   2.334
  335WAT     H1 1547   1.551   0.700   2.407
  335WAT     H2 1548   1.632   0.691   2.265
  336WAT      O 1549   0.354   1.510   3.191
  336WAT     H1 1550   0.333   1.466   3.104
  336WAT     H2 1551   0.451   1.536   3.194
  337WAT      O 1552   0.402   0.751   3.460
  337WAT     H1 1553   0.470   0.806   3.413
  337WAT     H2 1554   0.442   0.663   3.487
  338WAT      O 1555   1.587   0.779   3.532
  338WAT     H1 1556   1.495   0.817   3.527
  338WAT     H2 1557   1.647   0.826   3.467
  339WAT      O 1558   1.013   0.105   3.632
  339WAT     H1 1559   1.019   0.190   3.580
  339WAT     H2 1560   1.045   0.029   3.575
  340WAT      O 1561   0.504   0.050   3.602
  340WAT     H1 1562   0.462  -0.007   3.532
  340WAT     H2 1563   0.438   0.119   3.634
  341WAT      O 1564   0.573   0.870   2.891
  341WAT     H1 1565   0.617   0.959   2.882
  341WAT     H2 1566   0.510   0.870   2.968
  342WAT      O 1567   1.360   0.862   2.907
  342WAT     H1 1568   1.285   0.862   2.841
  342WAT     H2 1569   1.397   0.770   2.916
  343WAT      O 1570   1.209   0.525   2.137
  343WAT     H1 1571   1.222   0.441   2.191
  343WAT     H2 1572   1.180   0.599   2.197
  344WAT      O 1573   0.307   0.213   3.093
  344WAT     H1 1574   0.284   0.250   3.183
  344WAT     H2 1575   0.277   0.118   3.087
  345WAT      O 1576   0.037   1.310   3.144
  345WAT     H1 1577   0.090   1.261   3.212
  345WAT     H2 1578   0.059   1.408   3.149
  346WAT      O 1579   0.732   0.634   2.926
  346WAT     H1 1580   0.791   0.608   2.850
  346WAT     H2 1581   0.704   0.730   2.915
  347WAT      O 1582   1.728   0.935   3.716
  347WAT     H1 1583   1.682   0.928   3.627
  347WAT     H2 1584   1.666   0.979   3.782
  348WAT      O 1585   0.307   0.063   2.480
  348WAT     H1 1586   0.296   0.157   2.513
  348WAT     H2 1587   0.302   0.000   2.557
  349WAT      O 1588   1.622   0.367   2.236
  349WAT     H1 1589   1.624   0.291   2.300
  349WAT     H2 1590   1.574   0.444   2.276
  350WAT      O 1591   1.023   0.766   2.828
  350WAT     H1 1592   1.038   0.787   2.924
  350WAT     H2 1593   0.993   0.671   2.819
  351WAT      O 1594   0.980   1.573   3.562
  351WAT     H1 1595   0.960   1.617   3.474
  351WAT     H2 1596   1.019   1.482   3.546
  352WAT      O 1597   1.859   1.518   3.467
  352WAT     H1 1598   1.873   1.545   3.372
  352WAT     H2 1599   1.942   1.540   3.520
  353WAT      O 1600   0.350   0.898   3.666
  353WAT     H1 1601   0.426   0.942   3.714
  353WAT     H2 1602   0.385   0.851   3.584
  354WAT      O 1603   1.540   0.274   1.987
  354WAT     H1 1604   1.479   0.199   2.010
  354WAT     H2 1605   1.562   0.326   2.070
  355WAT      O 1606   1.303   0.838   1.904
  355WAT     H1 1607   1.337   0.745   1.919
  355WAT     H2 1608   1.321   0.865   1.809
  356WAT      O 1609   1.068   1.333   2.711
  356WAT     H1 1610   1.075   1.249   2.656
  356WAT     H2 1611   1.130   1.402   2.675
  357WAT      O 1612   0.319   0.810   2.811
  357WAT     H1 1613   0.412   0.846   2.816
  357WAT     H2 1614   0.313   0.725   2.863
  358WAT      O 1615   0.339   0.509   2.868
  358WAT     H1 1616   0.287   0.426   2.851
  358WAT     H2 1617   0.416   0.514   2.804
  359WAT      O 1618   1.138   0.380   3.540
  359WAT     H1 1619   1.093   0.443   3.604
  359WAT     H2 1620   1.231   0.411   3.523
  360WAT      O 1621   1.160   0.207   3.339
  360WAT     H1 1622   1.160   0.271   3.416
  360WAT     H2 1623   1.188   0.255   3.256
  361WAT      O 1624   0.008   1.326   2.062
  361WAT     H1 1625  -0.085   1.347   2.031
  361WAT     H2 1626   0.018   1.227   2.075
  362WAT      O 1627   0.088   1.801   2.789
  362WAT     H1 1628   0.046   1.715   2.762
  362WAT     H2 1629   0.182   1.804   2.755
  363WAT      O 1630   0.504   1.568   2.772
  363WAT     H1 1631   0.570   1.642   2.781
  363WAT     H2 1632   0.548   1.489   2.730
  364WAT      O 1633   1.002   0.796   3.100
  364WAT     H1 1634   1.043   0.764   3.186
  364WAT     H2 1635   0.906   0.769   3.097
  365WAT      O 1636   0.040   0.544   2.976
  365WAT     H1 1637   0.125   0.511   2.935
  365WAT     H2 1638   0.053   0.559   3.074
  366WAT      O 1639   0.189   0.520   3.584
  366WAT     H1 1640   0.248   0.480   3.514
  366WAT     H2 1641   0.131   0.591   3.543
  367WAT      O 1642   1.369   0.950   3.522
  367WAT     H1 1643   1.408   1.039   3.542
  367WAT     H2 1644   1.379   0.930   3.425
  368WAT      O 1645   0.815   0.572   2.187
  368WAT     H1 1646   0.822   0.483   2.141
  368WAT     H2 1647   0.721   0.606   2.179
  369WAT      O 1648   1.657   0.604   3.068
  369WAT     H1 1649   1.619   0.535   3.130
  369WAT     H2 1650   1.739   0.568   3.024
  370WAT      O 1651   0.252   1.564   3.606
  370WAT     H1 1652   0.222   1.621   3.682
  370WAT     H2 1653   0.245   1.467   3.632
  371WAT      O 1654   0.671   0.464   3.131
  371WAT     H1 1655   0.637   0.375   3.101
  371WAT     H2 1656   0.697   0.518   3.051
  372WAT      O 1657   0.930   1.678   3.327
  372WAT     H1 1658   0.906   1.660   3.232
  372WAT     H2 1659   0.960   1.772   3.337
  373WAT      O 1660   0.473   0.500   2.053
  373WAT     H1 1661   0.534   0.580   2.057
  373WAT     H2 1662   0.378   0.531   2.060
  374WAT      O 1663   0.159   1.137   3.328
  374WAT     H1 1664   0.181   1.076   3.404
  374WAT     H2 1665   0.169   1.088   3.242
  375WAT      O 1666   1.347   1.059   3.096
  375WAT     H1 1667   1.371   0.996   3.022
  375WAT     H2 1668   1.257   1.099   3.078
  376WAT      O 1669   1.302   0.855   2.171
  376WAT     H1 1670   1.216   0.824   2.213
  376WAT     H2 1671   1.298   0.841   2.072
  377WAT      O 1672   1.759   1.747   3.016
  377WAT     H1 1673   1.820   1.777   2.943
  377WAT     H2 1674   1.721   1.658   2.994
  378WAT      O 1675   1.252   1.731   2.990
  378WAT     H1 1676   1.336   1.736   2.936
  378WAT     H2 1677   1.229   1.635   3.008
  379WAT      O 1678   0.083   1.258   2.884
  379WAT     H1 1679   0.078   1.257   2.984
  379WAT     H2 1680   0.000   1.217   2.846
  380WAT      O 1681   0.688   1.662   3.578
  380WAT     H1 1682   0.632   1.743   3.587
  380WAT     H2 1683   0.740   1.666   3.492
  381WAT      O 1684   1.726   0.135   2.385
  381WAT     H1 1685   1.799   0.118   2.318
  381WAT     H2 1686   1.695   0.048   2.423
  382WAT      O 1687   1.388   1.573   2.339
  382WAT     H1 1688   1.455   1.585   2.265
  382WAT     H2 1689   1.348   1.662   2.362
  383WAT      O 1690   0.130   1.794   3.713
  383WAT     H1 1691   0.089   1.720   3.766
  383WAT     H2 1692   0.194   1.845   3.771
  384WAT      O 1693   1.280   0.927   2.534
  384WAT     H1 1694   1.340   0.846   2.536
  384WAT     H2 1695   1.320   0.996   2.474
  385WAT      O 1696   0.830   1.273   3.284
  385WAT     H1 1697   0.825   1.306   3.379
  385WAT     H2 1698   0.744   1.292   3.238
  386WAT      O 1699   0.672   1.616   2.016
  386WAT     H1 1700   0.681   1.626   1.917
  386WAT     H2 1701   0.632   1.527   2.037
  387WAT      O 1702   1.650   1.720   3.256
  387WAT     H1 1703   1.703   1.730   3.172
  387WAT     H2 1704   1.623   1.810   3.290
  388WAT      O 1705   1.841   0.175   2.825
  388WAT     H1 1706   1.880   0.090   2.789
  388WAT     H2 1707   1.743   0.177   2.806
  389WAT      O 1708   0.263   0.326   2.582
  389WAT     H1 1709   0.184   0.377   2.548
  389WAT     H2 1710   0.254   0.311   2.680
  390WAT      O 1711   1.194   1.612   1.893
  390WAT     H1 1712   1.200   1.519   1.930
  390WAT     H2 1713   1.135   1.612   1.813
  391WAT      O 1714   0.822   1.002   3.234
  391WAT     H1 1715   0.862   1.001   3.142
  391WAT     H2 1716   0.832   1.094   3.274
  392WAT      O 1717   0.916   0.910   2.153
  392WAT     H1 1718   0.979   0.948   2.085
  392WAT     H2 1719   0.956   0.827   2.192
  393WAT      O 1720   1.504   1.607   1.906
  393WAT     H1 1721   1.412   1.644   1.913
  393WAT     H2 1722   1.542   1.627   1.816
  394WAT      O 1723   0.372   1.288   3.352
  394WAT     H1 1724   0.359   1.381   3.318
  394WAT     H2 1725   0.288   1.236   3.339
  395WAT      O 1726   1.614   1.292   3.151
  395WAT     H1 1727   1.674   1.295   3.231
  395WAT     H2 1728   1.539   1.356   3.164
  396WAT      O 1729   1.039   1.098   2.558
  396WAT     H1 1730   0.969   1.051   2.612
  396WAT     H2 1731   1.098   1.030   2.515
  397WAT      O 1732   1.014   0.236   2.833
  397WAT     H1 1733   1.006   0.200   2.740
  397WAT     H2 1734   1.012   0.160   2.898
  398WAT      O 1735   0.590   1.487   2.353
  398WAT     H1 1736   0.632   1.429   2.283
  398WAT     H2 1737   0.546   1.566   2.309
  399WAT      O 1738   1.709   0.385   3.243
  399WAT     H1 1739   1.782   0.454   3.247
  399WAT     H2 1740   1.737   0.310   3.184
  400WAT      O 1741   0.255   1.348   2.152
  400WAT     H1 1742   0.159   1.349   2.125
  400WAT     H2 1743   0.267   1.401   2.236
  401WAT      O 1744   0.105   1.013   3.588
  401WAT     H1 1745   0.028   0.980   3.642
  401WAT     H2 1746   0.190   0.983   3.630
  402WAT      O 1747   0.672   0.203   3.351
  402WAT     H1 1748   0.762   0.187   3.311
  402WAT     H2 1749   0.680   0.208   3.450
  403WAT      O 1750   0.075   0.345   1.895
  403WAT     H1 1751  -0.017   0.317   1.866
  403WAT     H2 1752   0.106   0.422   1.839
  404WAT      O 1753   1.440   0.856   3.260
  404WAT     H1 1754   1.383   0.908   3.197
  404WAT     H2 1755   1.536   0.868   3.236
  405WAT      O 1756   0.072   0.166   2.180
  405WAT     H1 1757   0.055   0.249   2.126
  405WAT     H2 1758   0.162   0.129   2.158
  406WAT      O 1759   1.183   1.335   1.981
  406WAT     H1 1760   1.084   1.324   1.983
  406WAT     H2 1761   1.217   1.350   2.074
  407WAT      O 1762   0.613   0.842   3.293
  407WAT     H1 1763   0.669   0.923   3.276
  407WAT     H2 1764   0.672   0.762   3.296
  408WAT      O 1765   1.493   1.767   2.821
  408WAT     H1 1766   1.526   1.831   2.752
  408WAT     H2 1767   1.559   1.761   2.896
  409WAT      O 1768   0.716   0.565   3.570
  409WAT     H1 1769   0.735   0.630   3.644
  409WAT     H2 1770   0.776   0.485   3.579
  410WAT      O 1771   1.450   1.220   3.495
  410WAT     H1 1772   1.441   1.210   3.594
  410WAT     H2 1773   1.546   1.213   3.469
  411WAT      O 1774   0.390   1.741   3.422
  411WAT     H1 1775   0.299   1.782   3.420
  411WAT     H2 1776   0.383   1.647   3.454
  412WAT      O 1777   1.674   0.883   3.116
  412WAT     H1 1778   1.647   0.794   3.079
  412WAT     H2 1779   1.675   0.951   3.043
  413WAT      O 1780   1.225   0.325   2.311
  413WAT     H1 1781   1.290   0.251   2.300
  413WAT     H2 1782   1.245   0.375   2.395
  414WAT      O 1783   0.594   0.745   2.514
  414WAT     H1 1784   0.644   0.830   2.495
  414WAT     H2 1785   0.506   0.747   2.466
  415WAT      O 1786   1.777   0.342   3.504
  415WAT     H1 1787   1.760   0.373   3.410
  415WAT     H2 1788   1.693   0.305   3.542
  416WAT      O 1789   1.730   0.934   3.379
  416WAT     H1 1790   1.768   1.025   3.394
  416WAT     H2 1791   1.722   0.917   3.280
  417WAT      O 1792   0.859   1.374   1.878
  417WAT     H1 1793   0.813   1.389   1.966
  417WAT     H2 1794   0.903   1.459   1.848
  418WAT      O 1795   0.661   1.790   2.815
  418WAT     H1 1796   0.615   1.878   2.802
  418WAT     H2 1797   0.760   1.802   2.808
  419WAT      O 1798   0.859   0.956   2.723
  419WAT     H1 1799   0.913   0.887   2.771
  419WAT     H2 1800   0.827   1.025   2.789
  420WAT      O 1801   1.083   0.984   1.949
  420WAT     H1 1802   1.060   1.037   1.867
  420WAT     H2 1803   1.164   0.928   1.930
  421WAT      O 1804   1.861   1.569   2.713
  421WAT     H1 1805   1.790   1.557   2.643
  421WAT     H2 1806   1.862   1.490   2.773
  422WAT      O 1807   0.221   1.314   3.706
  422WAT     H1 1808   0.156   1.241   3.685
  422WAT     H2 1809   0.225   1.328   3.804
  423WAT      O 1810   0.079   1.240   2.515
  423WAT     H1 1811   0.078   1.193   2.603
  423WAT     H2 1812   0.161   1.212   2.464
  424WAT      O 1813   0.672   1.391   3.486
  424WAT     H1 1814   0.594   1.341   3.524
  424WAT     H2 1815   0.669   1.486   3.517
  425WAT      O 1816   1.824   0.192   3.089
  425WAT     H1 1817   1.820   0.102   3.133
  425WAT     H2 1818   1.827   0.181   2.990
  426WAT      O 1819   0.428   0.424   2.382
  426WAT     H1 1820   0.458   0.352   2.320
  426WAT     H2 1821   0.389   0.384   2.465
  427WAT      O 1822   1.705   1.487   2.966
  427WAT     H1 1823   1.612   1.462   2.939
  427WAT     H2 1824   1.731   1.437   3.048
  428WAT      O 1825   0.317   0.547   3.142
  428WAT     H1 1826   0.355   0.488   3.214
  428WAT     H2 1827   0.357   0.521   3.054
  429WAT      O 1828   0.812   1.586   2.549
  429WAT     H1 1829   0.844   1.596   2.455
  429WAT     H2 1830   0.733   1.524   2.551
  430WAT      O 1831   1.424   0.214   2.974
  430WAT     H1 1832   1.476   0.149   3.029
  430WAT     H2 1833   1.375   0.277   3.035
  431WAT      O 1834   1.001   0.034   3.016
  431WAT     H1 1835   0.938  -0.038   2.985
  431WAT     H2 1836   1.094  -0.002   3.016
  432WAT      O 1837   0.770   1.330   2.163
  432WAT     H1 1838   0.724   1.243   2.180
  432WAT     H2 1839   0.861   1.327   2.204
  433WAT      O 1840   0.618   1.567   3.146
  433WAT     H1 1841   0.613   1.649   3.203
  433WAT     H2 1842   0.707   1.564   3.101
  434WAT      O 1843   1.352   0.052   2.030
  434WAT     H1 1844   1.387   0.011   1.946
  434WAT     H2 1845   1.262   0.014   2.050
  435WAT      O 1846   1.300   0.453   2.553
  435WAT     H1 1847   1.241   0.533   2.557
  435WAT     H2 1848   1.315   0.418   2.646
  436WAT      O 1849   1.593   0.221   2.744
  436WAT     H1 1850   1.509   0.220   2.798
  436WAT     H2 1851   1.595   0.304   2.688
  437WAT      O 1852   0.039   1.077   2.162
  437WAT     H1 1853   0.138   1.066   2.153
  437WAT     H2 1854  -0.001   0.991   2.194
  438WAT      O 1855   0.875   1.646   2.199
  438WAT     H1 1856   0.798   1.611   2.145
  438WAT     H2 1857   0.843   1.717   2.261
  439WAT      O 1858   0.230   0.628   3.837
  439WAT     H1 1859   0.137   0.626   3.874
  439WAT     H2 1860   0.231   0.589   3.745
  440WAT      O 1861   0.225   0.275   4.720
  440WAT     H1 1862   0.260   0.258   4.812
  440WAT     H2 1863   0.137   0.230   4.708
  441WAT      O 1864   0.019   0.368   4.371
  441WAT     H1 1865  -0.063   0.411   4.410
  441WAT     H2 1866  -0.009   0.295   4.308
  442WAT      O 1867   0.569   1.275   4.889
  442WAT     H1 1868   0.476   1.268   4.852
  442WAT     H2 1869   0.580   1.364   4.933
  443WAT      O 1870   1.555   1.511   4.427
  443WAT     H1 1871   1.498   1.495   4.508
  443WAT     H2 1872   1.496   1.521   4.347
  444WAT      O 1873   1.135   0.703   4.441
  444WAT     H1 1874   1.192   0.781   4.416
  444WAT     H2 1875   1.075   0.729   4.517
  445WAT      O 1876   1.755   0.607   3.955
  445WAT     H1 1877   1.743   0.594   3.856
  445WAT     H2 1878   1.725   0.526   4.004
  446WAT      O 1879   0.768   1.144   4.747
  446WAT     H1 1880   0.690   1.161   4.807
  446WAT     H2 1881   0.802   1.231   4.711
  447WAT      O 1882   0.850   0.798   5.547
  447WAT     H1 1883   0.846   0.874   5.612
  447WAT     H2 1884   0.872   0.834   5.456
  448WAT      O 1885   0.685   1.012   4.389
  448WAT     H1 1886   0.754   0.996   4.459
  448WAT     H2 1887   0.612   1.069   4.427
  449WAT      O 1888   0.686   1.161   5.527
  449WAT     H1 1889   0.746   1.240   5.541
  449WAT     H2 1890   0.600   1.192   5.486
  450WAT      O 1891   0.335   1.435   4.785
  450WAT     H1 1892   0.257   1.404   4.732
  450WAT     H2 1893   0.393   1.493   4.728
  451WAT      O 1894   1.460   1.505   5.063
  451WAT     H1 1895   1.484   1.599   5.089
  451WAT     H2 1896   1.444   1.451   5.145
  452WAT      O 1897   0.438   0.392   5.223
  452WAT     H1 1898   0.520   0.336   5.232
  452WAT     H2 1899   0.357   0.334   5.227
  453WAT      O 1900   1.603   0.447   4.461
  453WAT     H1 1901   1.529   0.493   4.411
  453WAT     H2 1902   1.654   0.515   4.514
  454WAT      O 1903   0.231   1.713   4.207
  454WAT     H1 1904   0.265   1.790   4.261
  454WAT     H2 1905   0.275   1.713   4.117
  455WAT      O 1906   1.127   1.341   5.414
  455WAT     H1 1907   1.174   1.341   5.502
  455WAT     H2 1908   1.079   1.254   5.403
  456WAT      O 1909   0.230   1.434   4.262
  456WAT     H1 1910   0.204   1.530   4.262
  456WAT     H2 1911   0.159   1.380   4.307
  457WAT      O 1912   0.240   1.091   4.610
  457WAT     H1 1913   0.254   1.007   4.662
  457WAT     H2 1914   0.185   1.155   4.665
  458WAT      O 1915   0.620   1.786   5.163
  458WAT     H1 1916   0.528   1.769   5.198
  458WAT     H2 1917   0.648   1.878   5.189
  459WAT      O 1918   0.606   0.964   3.847
  459WAT     H1 1919   0.613   1.048   3.793
  459WAT     H2 1920   0.652   0.977   3.935
  460WAT      O 1921   1.594   0.114   5.204
  460WAT     H1 1922   1.576   0.181   5.132
  460WAT     H2 1923   1.591   0.160   5.293
  461WAT      O 1924   0.122   0.643   4.287
  461WAT     H1 1925   0.077   0.555   4.304
  461WAT     H2 1926   0.121   0.697   4.371
  462WAT      O 1927   1.842   1.767   4.083
  462WAT     H1 1928   1.896   1.738   4.163
  462WAT     H2 1929   1.872   1.857   4.054
  463WAT      O 1930   0.027   1.596   3.841
  463WAT     H1 1931   0.008   1.500   3.862
  463WAT     H2 1932  -0.006   1.654   3.916
  464WAT      O 1933   1.689   0.922   4.336
  464WAT     H1 1934   1.784   0.893   4.344
  464WAT     H2 1935   1.681   0.987   4.261
  465WAT      O 1936   1.641   1.108   4.156
  465WAT     H1 1937   1.727   1.110   4.104
  465WAT     H2 1938   1.655   1.155   4.244
  466WAT      O 1939   0.113   0.737   5.321
  466WAT     H1 1940   0.201   0.724   5.366
  466WAT     H2 1941   0.100   0.834   5.299
  467WAT      O 1942   0.613   1.365   4.450
  467WAT     H1 1943   0.564   1.278   4.459
  467WAT     H2 1944   0.590   1.408   4.363
  468WAT      O 1945   1.293   1.228   5.147
  468WAT     H1 1946   1.330   1.155   5.089
  468WAT     H2 1947   1.345   1.233   5.232
  469WAT      O 1948   0.809   0.004   4.226
  469WAT     H1 1949   0.849   0.095   4.217
  469WAT     H2 1950   0.709   0.012   4.232
  470WAT      O 1951   0.197   0.976   4.988
  470WAT     H1 1952   0.286   0.931   4.974
  470WAT     H2 1953   0.124   0.911   4.969
  471WAT      O 1954   1.525   0.999   3.914
  471WAT     H1 1955   1.462   0.923   3.927
  471WAT     H2 1956   1.573   1.017   4.000
  472WAT      O 1957   1.187   1.792   5.340
  472WAT     H1 1958   1.211   1.852   5.264
  472WAT     H2 1959   1.194   1.697   5.310
  473WAT      O 1960   0.317   0.251   5.525
  473WAT     H1 1961   0.388   0.322   5.531
  473WAT     H2 1962   0.229   0.290   5.553
  474WAT      O 1963   1.466   1.417   4.677
  474WAT     H1 1964   1.407   1.423   4.757
  474WAT     H2 1965   1.451   1.329   4.631
  475WAT      O 1966   1.667   1.714   4.296
  475WAT     H1 1967   1.626   1.691   4.208
  475WAT     H2 1968   1.649   1.640   4.361
  476WAT      O 1969   0.598   0.729   3.994
  476WAT     H1 1970   0.622   0.798   3.926
  476WAT     H2 1971   0.520   0.762   4.048
  477WAT      O 1972   1.281   0.345   4.668
  477WAT     H1 1973   1.195   0.295   4.655
  477WAT     H2 1974   1.343   0.291   4.724
  478WAT      O 1975   1.576   1.662   4.031
  478WAT     H1 1976   1.665   1.708   4.034
  478WAT     H2 1977   1.555   1.638   3.936
  479WAT      O 1978   0.807   0.605   5.189
  479WAT     H1 1979   0.760   0.602   5.278
  479WAT     H2 1980   0.756   0.550   5.123
  480WAT      O 1981   1.394   0.469   5.398
  480WAT     H1 1982   1.374   0.512   5.486
  480WAT     H2 1983   1.472   0.407   5.407
  481WAT      O 1984   0.973   0.890   5.296
  481WAT     H1 1985   1.019   0.806   5.267
  481WAT     H2 1986   0.917   0.924   5.221
  482WAT      O 1987   0.991   0.410   4.966
  482WAT     H1 1988   0.914   0.444   5.020
  482WAT     H2 1989   0.957   0.359   4.887
  483WAT      O 1990   1.041   0.701   4.153
  483WAT     H1 1991   1.067   0.697   4.249
  483WAT     H2 1992   0.956   0.650   4.139
  484WAT      O 1993   0.076   0.811   4.513
  484WAT     H1 1994   0.175   0.799   4.522
  484WAT     H2 1995   0.052   0.906   4.534
  485WAT      O 1996   0.130   1.821   5.295
  485WAT     H1 1997   0.120   1.806   5.394
  485WAT     H2 1998   0.044   1.857   5.259
  486WAT      O 1999   0.865   0.348   3.919
  486WAT     H1 2000   0.924   0.411   3.870
  486WAT     H2 2001   0.884   0.254   3.890
  487WAT      O 2002   1.719   0.585   5.555
  487WAT     H1 2003   1.693   0.674   5.519
  487WAT     H2 2004   1.717   0.517   5.482
  488WAT      O 2005   1.362   1.144   4.269
  488WAT     H1 2006   1.445   1.115   4.221
  488WAT     H2 2007   1.313   1.211   4.213
  489WAT      O 2008   0.550   0.196   4.609
  489WAT     H1 2009   0.545   0.191   4.709
  489WAT     H2 2010   0.552   0.292   4.580
  490WAT      O 2011   1.008   1.456   4.201
  490WAT     H1 2012   0.962   1.528   4.149
  490WAT     H2 2013   1.004   1.476   4.299
  491WAT      O 2014   0.351   1.801   4.577
  491WAT     H1 2015   0.401   1.715   4.583
  491WAT     H2 2016   0.416   1.878   4.574
  492WAT      O 2017   1.795   1.066   4.597
  492WAT     H1 2018   1.733   1.051   4.521
  492WAT     H2 2019   1.743   1.077   4.682
  493WAT      O 2020   1.227   1.550   5.230
  493WAT     H1 2021   1.233   1.473   5.294
  493WAT     H2 2022   1.175   1.524   5.150
  494WAT      O 2023   0.321   0.943   3.966
  494WAT     H1 2024   0.403   0.982   3.924
  494WAT     H2 2025   0.294   0.861   3.917
  495WAT      O 2026   1.458   0.735   4.452
  495WAT     H1 2027   1.453   0.670   4.527
  495WAT     H2 2028   1.538   0.794   4.465
  496WAT      O 2029   0.461   1.266   5.451
  496WAT     H1 2030   0.411   1.267   5.365
  496WAT     H2 2031   0.398   1.248   5.527
  497WAT      O 2032   1.111   1.776   3.961
  497WAT     H1 2033   1.051   1.714   4.011
  497WAT     H2 2034   1.142   1.732   3.876
  498WAT      O 2035   0.202   0.285   5.222
  498WAT     H1 2036   0.122   0.345   5.209
  498WAT     H2 2037   0.192   0.236   5.308
  499WAT      O 2038   1.632   1.377   3.805
  499WAT     H1 2039   1.600   1.471   3.795
  499WAT     H2 2040   1.556   1.314   3.793
  500WAT      O 2041   0.464   1.743   4.047
  500WAT     H1 2042   0.497   1.782   4.133
  500WAT     H2 2043   0.540   1.736   3.982
  501WAT      O 2044   1.400   0.107   4.150
  501WAT     H1 2045   1.376   0.070   4.060
  501WAT     H2 2046   1.499   0.123   4.154
  502WAT      O 2047   0.249   1.785   4.965
  502WAT     H1 2048   0.306   1.720   5.015
  502WAT     H2 2049   0.233   1.752   4.872
  503WAT      O 2050   0.940   1.698   4.628
  503WAT     H1 2051   1.020   1.641   4.649
  503WAT     H2 2052   0.891   1.658   4.551
  504WAT      O 2053   0.382   0.700   4.204
  504WAT     H1 2054   0.427   0.610   4.201
  504WAT     H2 2055   0.288   0.689   4.237
  505WAT      O 2056   1.547   0.222   5.453
  505WAT     H1 2057   1.542   0.259   5.545
  505WAT     H2 2058   1.475   0.153   5.441
  506WAT      O 2059   0.614   0.122   3.841
  506WAT     H1 2060   0.712   0.100   3.848
  506WAT     H2 2061   0.583   0.105   3.748
  507WAT      O 2062   0.781   0.264   5.473
  507WAT     H1 2063   0.848   0.203   5.516
  507WAT     H2 2064   0.708   0.283   5.538
  508WAT      O 2065   0.888   1.514   4.919
  508WAT     H1 2066   0.865   1.489   4.825
  508WAT     H2 2067   0.949   1.445   4.958
  509WAT      O 2068   1.351   0.590   5.157
  509WAT     H1 2069   1.379   0.547   5.242
  509WAT     H2 2070   1.376   0.686   5.158
  510WAT      O 2071   0.803   1.402   4.648
  510WAT     H1 2072   0.893   1.416   4.606
  510WAT     H2 2073   0.732   1.404   4.577
  511WAT      O 2074   0.922   0.503   4.623
  511WAT     H1 2075   0.897   0.494   4.527
  511WAT     H2 2076   0.970   0.421   4.654
  512WAT      O 2077   0.539   0.064   4.236
  512WAT     H1 2078   0.458   0.065   4.294
  512WAT     H2 2079   0.542   0.147   4.181
  513WAT      O 2080   1.434   1.188   3.765
  513WAT     H1 2081   1.466   1.112   3.822
  513WAT     H2 2082   1.342   1.215   3.795
  514WAT      O 2083   0.297   0.035   3.895
  514WAT     H1 2084   0.346   0.119   3.874
  514WAT     H2 2085   0.359  -0.030   3.940
  515WAT      O 2086   0.935   0.236   4.204
  515WAT     H1 2087   0.887   0.277   4.126
  515WAT     H2 2088   1.034   0.234   4.185
  516WAT      O 2089   1.076   0.683   5.188
  516WAT     H1 2090   0.996   0.622   5.191
  516WAT     H2 2091   1.157   0.630   5.164
  517WAT      O 2092   1.227   1.570   4.517
  517WAT     H1 2093   1.248   1.644   4.452
  517WAT     H2 2094   1.295   1.570   4.590
  518WAT      O 2095   0.459   1.152   4.465
  518WAT     H1 2096   0.388   1.125   4.530
  518WAT     H2 2097   0.433   1.124   4.372
  519WAT      O 2098   1.271   1.797   4.315
  519WAT     H1 2099   1.315   1.861   4.251
  519WAT     H2 2100   1.221   1.849   4.385
  520WAT      O 2101   1.032   0.549   3.740
  520WAT     H1 2102   0.991   0.631   3.701
  520WAT     H2 2103   1.096   0.575   3.813
  521WAT      O 2104   0.078   0.556   5.110
  521WAT     H1 2105   0.170   0.555   5.069
  521WAT     H2 2106   0.072   0.630   5.177
  522WAT      O 2107   0.561   0.222   4.871
  522WAT     H1 2108   0.599   0.138   4.908
  522WAT     H2 2109   0.473   0.241   4.915
  523WAT      O 2110   0.866   0.454   4.366
  523WAT     H1 2111   0.834   0.526   4.304
  523WAT     H2 2112   0.890   0.373   4.313
  524WAT      O 2113   1.017   0.039   4.477
  524WAT     H1 2114   0.945   0.044   4.408
  524WAT     H2 2115   0.993  -0.030   4.546
  525WAT      O 2116   1.429   1.173   4.591
  525WAT     H1 2117   1.374   1.089   4.584
  525WAT     H2 2118   1.455   1.202   4.499
  526WAT      O 2119   1.466   0.590   4.716
  526WAT     H1 2120   1.436   0.495   4.723
  526WAT     H2 2121   1.539   0.606   4.782
  527WAT      O 2122   1.857   0.833   4.101
  527WAT     H1 2123   1.899   0.769   4.165
  527WAT     H2 2124   1.819   0.782   4.023
  528WAT      O 2125   0.488   1.385   3.898
  528WAT     H1 2126   0.401   1.370   3.945
  528WAT     H2 2127   0.471   1.411   3.803
  529WAT      O 2128   1.664   1.280   4.381
  529WAT     H1 2129   1.763   1.288   4.395
  529WAT     H2 2130   1.619   1.364   4.412
  530WAT      O 2131   1.390   0.575   3.802
  530WAT     H1 2132   1.336   0.554   3.883
  530WAT     H2 2133   1.481   0.534   3.811
  531WAT      O 2134   0.527   0.256   4.052
  531WAT     H1 2135   0.554   0.197   3.977
  531WAT     H2 2136   0.527   0.351   4.021
  532WAT      O 2137   1.754   1.223   5.312
  532WAT     H1 2138   1.845   1.184   5.299
  532WAT     H2 2139   1.762   1.319   5.336
  533WAT      O 2140   1.064   1.347   5.064
  533WAT     H1 2141   0.984   1.324   5.119
  533WAT     H2 2142   1.147   1.321   5.113
  534WAT      O 2143   1.592   1.629   5.349
  534WAT     H1 2144   1.619   1.663   5.259
  534WAT     H2 2145   1.671   1.591   5.395
  535WAT      O 2146   1.111   1.195   4.824
  535WAT     H1 2147   1.071   1.239   4.905
  535WAT     H2 2148   1.070   1.232   4.741
  536WAT      O 2149   1.638   1.099   4.803
  536WAT     H1 2150   1.643   1.180   4.862
  536WAT     H2 2151   1.552   1.101   4.752
  537WAT      O 2152   0.915   0.089   5.126
  537WAT     H1 2153   0.940   0.069   5.031
  537WAT     H2 2154   0.987   0.145   5.168
  538WAT      O 2155   0.980   1.116   5.443
  538WAT     H1 2156   0.881   1.122   5.453
  538WAT     H2 2157   1.003   1.036   5.387
  539WAT      O 2158   0.705   1.050   4.092
  539WAT     H1 2159   0.691   1.057   4.191
  539WAT     H2 2160   0.789   0.999   4.074
  540WAT      O 2161   0.410   0.813   4.975
  540WAT     H1 2162   0.496   0.825   5.025
  540WAT     H2 2163   0.368   0.726   5.002
  541WAT      O 2164   1.274   0.386   4.986
  541WAT     H1 2165   1.295   0.460   5.050
  541WAT     H2 2166   1.185   0.403   4.943
  542WAT      O 2167   0.064   1.564   5.055
  542WAT     H1 2168   0.018   1.646   5.021
  542WAT     H2 2169   0.162   1.583   5.064
  543WAT      O 2170   0.367   1.100   4.225
  543WAT     H1 2171   0.360   1.183   4.169
  543WAT     H2 2172   0.371   1.020   4.165
  544WAT      O 2173   0.566   0.537   4.589
  544WAT     H1 2174   0.578   0.603   4.515
  544WAT     H2 2175   0.612   0.571   4.672
  545WAT      O 2176   1.252   1.348   4.112
  545WAT     H1 2177   1.302   1.425   4.152
  545WAT     H2 2178   1.157   1.350   4.144
  546WAT      O 2179   1.272   1.445   4.866
  546WAT     H1 2180   1.319   1.458   4.953
  546WAT     H2 2181   1.206   1.371   4.875
  547WAT      O 2182   1.582   0.639   4.196
  547WAT     H1 2183   1.551   0.700   4.269
  547WAT     H2 2184   1.632   0.691   4.127
  548WAT      O 2185   0.354   1.510   5.053
  548WAT     H1 2186   0.333   1.466   4.966
  548WAT     H2 2187   0.451   1.536   5.056
  549WAT      O 2188   0.402   0.751   5.322
  549WAT     H1 2189   0.470   0.806   5.275
  549WAT     H2 2190   0.442   0.663   5.349
  550WAT      O 2191   1.587   0.779   5.394
  550WAT     H1 2192   1.495   0.817   5.389
  550WAT     H2 2193   1.647   0.826   5.329
  551WAT      O 2194   1.013   0.105   5.494
  551WAT     H1 2195   1.019   0.190   5.442
  551WAT     H2 2196   1.045   0.029   5.437
  552WAT      O 2197   0.504   0.050   5.464
  552WAT     H1 2198   0.462  -0.007   5.394
  552WAT     H2 2199   0.438   0.119   5.496
  553WAT      O 2200   0.573   0.870   4.753
  553WAT     H1 2201   0.617   0.959   4.744
  553WAT     H2 2202   0.510   0.870   4.830
  554WAT      O 2203   1.360   0.862   4.769
  554WAT     H1 2204   1.285   0.862   4.703
  554WAT     H2 2205   1.397   0.770   4.778
  555WAT      O 2206   1.209   0.525   3.999
  555WAT     H1 2207   1.222   0.441   4.053
  555WAT     H2 2208   1.180   0.599   4.059
  556WAT      O 2209   0.307   0.213   4.955
  556WAT     H1 2210   0.284   0.250   5.045
  556WAT     H2 2211   0.277   0.118   4.949
  557WAT      O 2212   0.037   1.310   5.006
  557WAT     H1 2213   0.090   1.261   5.074
  557WAT     H2 2214   0.059   1.408   5.011
  558WAT      O 2215   0.732   0.634   4.788
  558WAT     H1 2216   0.791   0.608   4.712
  558WAT     H2 2217   0.704   0.730   4.777
  559WAT      O 2218   1.728   0.935   5.578
  559WAT     H1 2219   1.682   0.928   5.489
  559WAT     H2 2220   1.666   0.979   5.644
  560WAT      O 2221   0.307   0.063   4.342
  560WAT     H1 2222   0.296   0.157   4.375
  560WAT     H2 2223   0.302   0.000   4.419
  561WAT      O 2224   1.622   0.367   4.098
  561WAT     H1 2225   1.624   0.291   4.162
  561WAT     H2 2226   1.574   0.444   4.138
  562WAT      O 2227   1.023   0.766   4.690
  562WAT     H1 2228   1.038   0.787   4.786
  562WAT     H2 2229   0.993   0.671   4.681
  563WAT      O 2230   0.980   1.573   5.424
  563WAT     H1 2231   0.960   1.617   5.336
  563WAT     H2 2232   1.019   1.482   5.408
  564WAT      O 2233   1.859   1.518   5.329
  564WAT     H1 2234   1.873   1.545   5.234
  564WAT     H2 2235   1.942   1.540   5.382
  565WAT      O 2236   0.350   0.898   5.528
  565WAT     H1 2237   0.426   0.942   5.576
  565WAT     H2 2238   0.385   0.851   5.446
  566WAT      O 2239   1.540   0.274   3.849
  566WAT     H1 2240   1.479   0.199   3.872
  566WAT     H2 2241   1.562   0.326   3.932
  567WAT      O 2242   1.303   0.838   3.766
  567WAT     H1 2243   1.337   0.745   3.781
  567WAT     H2 2244   1.321   0.865   3.671
  568WAT      O 2245   1.068   1.333   4.573
  568WAT     H1 2246   1.075   1.249   4.518
  568WAT     H2 2247   1.130   1.402   4.537
  569WAT      O 2248   0.319   0.810   4.673
  569WAT     H1 2249   0.412   0.846   4.678
  569WAT     H2 2250   0.313   0.725   4.725
  570WAT      O 2251   0.339   0.509   4.730
  570WAT     H1 2252   0.287   0.426   4.713
  570WAT     H2 2253   0.416   0.514   4.666
  571WAT      O 2254   1.138   0.380   5.402
  571WAT     H1 2255   1.093   0.443   5.466
  571WAT     H2 2256   1.231   0.411   5.385
  572WAT      O 2257   1.160   0.207   5.201
  572WAT     H1 2258   1.160   0.271   5.278
  572WAT     H2 2259   1.188   0.255   5.118
  573WAT      O 2260   0.008   1.326   3.924
  573WAT     H1 2261  -0.085   1.347   3.893
  573WAT     H2 2262   0.018   1.227   3.937
  574WAT      O 2263   0.088   1.801   4.651
  574WAT     H1 2264   0.046   1.715   4.624
  574WAT     H2 2265   0.182   1.804   4.617
  575WAT      O 2266   0.504   1.568   4.634
  575WAT     H1 2267   0.570   1.642   4.643
  575WAT     H2 2268   0.548   1.489   4.592
  576WAT      O 2269   1.002   0.796   4.962
  576WAT     H1 2270   1.043   0.764   5.048
  576WAT     H2 2271   0.906   0.769   4.959
  577WAT      O 2272   0.040   0.544   4.838
  577WAT     H1 2273   0.125   0.511   4.797
  577WAT     H2 2274   0.053   0.559   4.936
  578WAT      O 2275   0.189   0.520   5.446
  578WAT     H1 2276   0.248   0.480   5.376
  578WAT     H2 2277   0.131   0.591   5.405
  579WAT      O 2278   1.369   0.950   5.384
  579WAT     H1 2279   1.408   1.039   5.404
  579WAT     H2 2280   1.379   0.930   5.287
  580WAT      O 2281   0.815   0.572   4.049
  580WAT     H1 2282   0.822   0.483   4.003
  580WAT     H2 2283   0.721   0.606   4.041
  581WAT      O 2284   1.657   0.604   4.930
  581WAT     H1 2285   1.619   0.535   4.992
  581WAT     H2 2286   1.739   0.568   4.886
  582WAT      O 2287   0.252   1.564   5.468
  582WAT     H1 2288   0.222   1.621   5.544
  582WAT     H2 2289   0.245   1.467   5.494
  583WAT      O 2290   0.671   0.464   4.993
  583WAT     H1 2291   0.637   0.375   4.963
  583WAT     H2 2292   0.697   0.518   4.913
  584WAT      O 2293   0.930   1.678   5.189
  584WAT     H1 2294   0.906   1.660   5.094
  584WAT     H2 2295   0.960   1.772   5.199
  585WAT      O 2296   0.473   0.500   3.915
  585WAT     H1 2297   0.534   0.580   3.919
  585WAT     H2 2298   0.378   0.531   3.922
  586WAT      O 2299   0.159   1.137   5.190
  586WAT     H1 2300   0.181   1.076   5.266
  586WAT     H2 2301   0.169   1.088   5.104
  587WAT      O 2302   1.347   1.059   4.958
  587WAT     H1 2303   1.371   0.996   4.884
  587WAT     H2 2304   1.257   1.099   4.940
  588WAT      O 2305   1.302   0.855   4.033
  588WAT     H1 2306   1.216   0.824   4.075
  588WAT     H2 2307   1.298   0.841   3.934
  589WAT      O 2308   1.759   1.747   4.878
  589WAT     H1 2309   1.820   1.777   4.805
  589WAT     H2 2310   1.721   1.658   4.856
  590WAT      O 2311   1.252   1.731   4.852
  590WAT     H1 2312   1.336   1.736   4.798
  590WAT     H2 2313   1.229   1.635   4.870
  591WAT      O 2314   0.083   1.258   4.746
  591WAT     H1 2315   0.078   1.257   4.846
  591WAT     H2 2316   0.000   1.217   4.708
  592WAT      O 2317   0.688   1.662   5.440
  592WAT     H1 2318   0.632   1.743   5.449
  592WAT     H2 2319   0.740   1.666   5.354
  593WAT      O 2320   1.726   0.135   4.247
  593WAT     H1 2321   1.799   0.118   4.180
  593WAT     H2 2322   1.695   0.048   4.285
  594WAT      O 2323   1.388   1.573   4.201
  594WAT     H1 2324   1.455   1.585   4.127
  594WAT     H2 2325   1.348   1.662   4.224
  595WAT      O 2326   0.130   1.794   5.575
  595WAT     H1 2327   0.089   1.720   5.628
  595WAT     H2 2328   0.194   1.845   5.633
  596WAT      O 2329   1.280   0.927   4.396
  596WAT     H1 2330   1.340   0.846   4.398
  596WAT     H2 2331   1.320   0.996   4.336
  597WAT      O 2332   0.830   1.273   5.146
  597WAT     H1 2333   0.825   1.306   5.241
  597WAT     H2 2334   0.744   1.292   5.100
  598WAT      O 2335   0.672   1.616   3.878
  598WAT     H1 2336   0.681   1.626   3.779
  598WAT     H2 2337   0.632   1.527   3.899
  599WAT      O 2338   1.650   1.720   5.118
  599WAT     H1 2339   1.703   1.730   5.034
  599WAT     H2 2340   1.623   1.810   5.152
  600WAT      O 2341   1.841   0.175   4.687
  600WAT     H1 2342   1.880   0.090   4.651
  600WAT     H2 2343   1.743   0.177   4.668
  601WAT      O 2344   0.263   0.326   4.444
  601WAT     H1 2345   0.184   0.377   4.410
  601WAT     H2 2346   0.254   0.311   4.542
  602WAT      O 2347   1.194   1.612   3.755
  602WAT     H1 2348   1.200   1.519   3.792
  602WAT     H2 2349   1.135   1.612   3.675
  603WAT      O 2350   0.822   1.002   5.096
  603WAT     H1 2351   0.862   1.001   5.004
  603WAT     H2 2352   0.832   1.094   5.136
  604WAT      O 2353   0.916   0.910   4.015
  604WAT     H1 2354   0.979   0.948   3.947
  604WAT     H2 2355   0.956   0.827   4.054
  605WAT      O 2356   1.504   1.607   3.768
  605WAT     H1 2357   1.412   1.644   3.775
  605WAT     H2 2358   1.542   1.627   3.678
  606WAT      O 2359   0.372   1.288   5.214
  606WAT     H1 2360   0.359   1.381   5.180
  606WAT     H2 2361   0.288   1.236   5.201
  607WAT      O 2362   1.614   1.292   5.013
  607WAT     H1 2363   1.674   1.295   5.093
  607WAT     H2 2364   1.539   1.356   5.026
  608WAT      O 2365   1.039   1.098   4.420
  608WAT     H1 2366   0.969   1.051   4.474
  608WAT     H2 2367   1.098   1.030   4.377
  609WAT      O 2368   1.014   0.236   4.695
  609WAT     H1 2369   1.006   0.200   4.602
  609WAT     H2 2370   1.012   0.160   4.760
  610WAT      O 2371   0.590   1.487   4.215
  610WAT     H1 2372   0.632   1.429   4.145
  610WAT     H2 2373   0.546   1.566   4.171
  611WAT      O 2374   1.709   0.385   5.105
  611WAT     H1 2375   1.782   0.454   5.109
  611WAT     H2 2376   1.737   0.310   5.046
  612WAT      O 2377   0.255   1.348   4.014
  612WAT     H1 2378   0.159   1.349   3.987
  612WAT     H2 2379   0.267   1.401   4.098
  613WAT      O 2380   0.105   1.013   5.450
  613WAT     H1 2381   0.028   0.980   5.504
  613WAT     H2 2382   0.190   0.983   5.492
  614WAT      O 2383   0.672   0.203   5.213
  614WAT     H1 2384   0.762   0.187   5.173
  614WAT     H2 2385   0.680   0.208   5.312
  615WAT      O 2386   0.075   0.345   3.757
  615WAT     H1 2387  -0.017   0.317   3.728
  615WAT     H2 2388   0.106   0.422   3.701
  616WAT      O 2389   1.440   0.856   5.122
  616WAT     H1 2390   1.383   0.908   5.059
  616WAT     H2 2391   1.536   0.868   5.098
  617WAT      O 2392   0.072   0.166   4.042
  617WAT     H1 2393   0.055   0.249   3.988
  617WAT     H2 2394   0.162   0.129   4.020
  618WAT      O 2395   1.183   1.335   3.843
  618WAT     H1 2396   1.084   1.324   3.845
  618WAT     H2 2397   1.217   1.350   3.936
  619WAT      O 2398   0.613   0.842   5.155
  619WAT     H1 2399   0.669   0.923   5.138
  619WAT     H2 2400   0.672   0.762   5.158
  620WAT      O 2401   1.493   1.767   4.683
  620WAT     H1 2402   1.526   1.831   4.614
  620WAT     H2 2403   1.559   1.761   4.758
  621WAT      O 2404   0.716   0.565   5.432
  621WAT     H1 2405   0.735   0.630   5.506
  621WAT     H2 2406   0.776   0.485   5.441
  622WAT      O 2407   1.450   1.220   5.357
  622WAT     H1 2408   1.441   1.210   5.456
  622WAT     H2 2409   1.546   1.213   5.331
  623WAT      O 2410   0.390   1.741   5.284
  623WAT     H1 2411   0.299   1.782   5.282
  623WAT     H2 2412   0.383   1.647   5.316
  624WAT      O 2413   1.674   0.883   4.978
  624WAT     H1 2414   1.647   0.794   4.941
  624WAT     H2 2415   1.675   0.951   4.905
  625WAT      O 2416   1.225   0.325   4.173
  625WAT     H1 2417   1.290   0.251   4.162
  625WAT     H2 2418   1.245   0.375   4.257
  626WAT      O 2419   0.594   0.745   4.376
  626WAT     H1 2420   0.644   0.830   4.357
  626WAT     H2 2421   0.506   0.747   4.328
  627WAT      O 2422   1.777   0.342   5.366
  627WAT     H1 2423   1.760   0.373   5.272
  627WAT     H2 2424   1.693   0.305   5.404
  628WAT      O 2425   1.730   0.934   5.241
  628WAT     H1 2426   1.768   1.025   5.256
  628WAT     H2 2427   1.722   0.917   5.142
  629WAT      O 2428   0.859   1.374   3.740
  629WAT     H1 2429   0.813   1.389   3.828
  629WAT     H2 2430   0.903   1.459   3.710
  630WAT      O 2431   0.661   1.790   4.677
  630WAT     H1 2432   0.615   1.878   4.664
  630WAT     H2 2433   0.760   1.802   4.670
  631WAT      O 2434   0.859   0.956   4.585
  631WAT     H1 2435   0.913   0.887   4.633
  631WAT     H2 2436   0.827   1.025   4.651
  632WAT      O 2437   1.083   0.984   3.811
  632WAT     H1 2438   1.060   1.037   3.729
  632WAT     H2 2439   1.164   0.928   3.792
  633WAT      O 2440   1.861   1.569   4.575
  633WAT     H1 2441   1.790   1.557   4.505
  633WAT     H2 2442   1.862   1.490   4.635
  634WAT      O 2443   0.221   1.314   5.568
  634WAT     H1 2444   0.156   1.241   5.547
  634WAT     H2 2445   0.225   1.328   5.666
  635WAT      O 2446   0.079   1.240   4.377
  635WAT     H1 2447   0.078   1.193   4.465
  635WAT     H2 2448   0.161   1.212   4.326
  636WAT      O 2449   0.672   1.391   5.348
  636WAT     H1 2450   0.594   1.341   5.386
  636WAT     H2 2451   0.669   1.486   5.379
  637WAT      O 2452   1.824   0.192   4.951
  637WAT     H1 2453   1.820   0.102   4.995
  637WAT     H2 2454   1.827   0.181   4.852
  638WAT      O 2455   0.428   0.424   4.244
  638WAT     H1 2456   0.458   0.352   4.182
  638WAT     H2 2457   0.389   0.384   4.327
  639WAT      O 2458   1.705   1.487   4.828
  639WAT     H1 2459   1.612   1.462   4.801
  639WAT     H2 2460   1.731   1.437   4.910
  640WAT      O 2461   0.317   0.547   5.004
  640WAT     H1 2462   0.355   0.488   5.076
  640WAT     H2 2463   0.357   0.521   4.916
  641WAT      O 2464   0.812   1.586   4.411
  641WAT     H1 2465   0.844   1.596   4.317
  641WAT     H2 2466   0.733   1.524   4.413
  642WAT      O 2467   1.424   0.214   4.836
  642WAT     H1 2468   1.476   0.149   4.891
  642WAT     H2 2469   1.375   0.277   4.897
  643WAT      O 2470   1.001   0.034   4.878
  643WAT     H1 2471   0.938  -0.038   4.847
  643WAT     H2 2472   1.094  -0.002   4.878
  644WAT      O 2473   0.770   1.330   4.025
  644WAT     H1 2474   0.724   1.243   4.042
  644WAT     H2 2475   0.861   1.327   4.066
  645WAT      O 2476   0.618   1.567   5.008
  645WAT     H1 2477   0.613   1.649   5.065
  645WAT     H2 2478   0.707   1.564   4.963
  646WAT      O 2479   1.352   0.052   3.892
  646WAT     H1 2480   1.387   0.011   3.808
  646WAT     H2 2481   1.262   0.014   3.912
  647WAT      O 2482   1.300   0.453   4.415
  647WAT     H1 2483   1.241   0.533   4.419
  647WAT     H2 2484   1.315   0.418   4.508
  648WAT      O 2485   1.593   0.221   4.606
  648WAT     H1 2486   1.509   0.220   4.660
  648WAT     H2 2487   1.595   0.304   4.550
  649WAT      O 2488   0.039   1.077   4.024
  649WAT     H1 2489   0.138   1.066   4.015
  649WAT     H2 2490  -0.001   0.991   4.056
  650WAT      O 2491   0.875   1.646   4.061
  650WAT     H1 2492   0.798   1.611   4.007
  650WAT     H2 2493   0.843   1.717   4.123
  651WAT      O 2494   0.230   0.628   5.699
  651WAT     H1 2495   0.137   0.626   5.736
  651WAT     H2 2496   0.231   0.589   5.607
  652WAT      O 2497   0.225   0.275   6.582
  652WAT     H1 2498   0.260   0.258   6.674
  652WAT     H2 2499   0.137   0.230   6.570
  653WAT      O 2500   0.019   0.368   6.233
  653WAT     H1 2501  -0.063   0.411   6.272
  653WAT     H2 2502  -0.009   0.295   6.170
  654WAT      O 2503   0.569   1.275   6.751
  654WAT     H1 2504   0.476   1.268   6.714
  654WAT     H2 2505   0.580   1.364   6.795
  655WAT      O 2506   1.555   1.511   6.289
  655WAT     H1 2507   1.498   1.495   6.370
  655WAT     H2 2508   1.496   1.521   6.209
  656WAT      O 2509   1.135   0.703   6.303
  656WAT     H1 2510   1.192   0.781   6.278
  656WAT     H2 2511   1.075   0.729   6.379
  657WAT      O 2512   1.755   0.607   5.817
  657WAT     H1 2513   1.743   0.594   5.718
  657WAT     H2 2514   1.725   0.526   5.866
  658WAT      O 2515   0.768   1.144   6.609
  658WAT     H1 2516   0.690   1.161   6.669
  658WAT     H2 2517   0.802   1.231   6.573
  659WAT      O 2518   0.685   1.012   6.251
  659WAT     H1 2519   0.754   0.996   6.321
  659WAT     H2 2520   0.612   1.069   6.289
  660WAT      O 2521   0.335   1.435   6.647
  660WAT     H1 2522   0.257   1.404   6.594
  660WAT     H2 2523   0.393   1.493   6.590
  661WAT      O 2524   1.603   0.447   6.323
  661WAT     H1 2525   1.529   0.493   6.273
  661WAT     H2 2526   1.654   0.515   6.376
  662WAT      O 2527   0.231   1.713   6.069
  662WAT     H1 2528   0.265   1.790   6.123
  662WAT     H2 2529   0.275   1.713   5.979
  663WAT      O 2530   0.230   1.434   6.124
  663WAT     H1 2531   0.204   1.530   6.124
  663WAT     H2 2532   0.159   1.380   6.169
  664WAT      O 2533   0.240   1.091   6.472
  664WAT     H1 2534   0.254   1.007   6.524
  664WAT     H2 2535   0.185   1.155   6.527
  665WAT      O 2536   0.620   1.786   7.025
  665WAT     H1 2537   0.528   1.769   7.060
  665WAT     H2 2538   0.648   1.878   7.051
  666WAT      O 2539   0.606   0.964   5.709
  666WAT     H1 2540   0.613   1.048   5.655
  666WAT     H2 2541   0.652   0.977   5.797
  667WAT      O 2542   0.122   0.643   6.149
  667WAT     H1 2543   0.077   0.555   6.166
  667WAT     H2 2544   0.121   0.697   6.233
  668WAT      O 2545   1.842   1.767   5.945
  668WAT     H1 2546   1.896   1.738   6.025
  668WAT     H2 2547   1.872   1.857   5.916
  669WAT      O 2548   0.027   1.596   5.703
  669WAT     H1 2549   0.008   1.500   5.724
  669WAT     H2 2550  -0.006   1.654   5.778
  670WAT      O 2551   1.689   0.922   6.198
  670WAT     H1 2552   1.784   0.893   6.206
  670WAT     H2 2553   1.681   0.987   6.123
  671WAT      O 2554   1.641   1.108   6.018
  671WAT     H1 2555   1.727   1.110   5.966
  671WAT     H2 2556   1.655   1.155   6.106
  672WAT      O 2557   0.613   1.365   6.312
  672WAT     H1 2558   0.564   1.278   6.321
  672WAT     H2 2559   0.590   1.408   6.225
  673WAT      O 2560   0.809   0.004   6.088
  673WAT     H1 2561   0.849   0.095   6.079
  673WAT     H2 2562   0.709   0.012   6.094
  674WAT      O 2563   0.197   0.976   6.850
  674WAT     H1 2564   0.286   0.931   6.836
  674WAT     H2 2565   0.124   0.911   6.831
  675WAT      O 2566   1.525   0.999   5.776
  675WAT     H1 2567   1.462   0.923   5.789
  675WAT     H2 2568   1.573   1.017   5.862
  676WAT      O 2569   1.466   1.417   6.539
  676WAT     H1 2570   1.407   1.423   6.619
  676WAT     H2 2571   1.451   1.329   6.493
  677WAT      O 2572   1.667   1.714   6.158
  677WAT     H1 2573   1.626   1.691   6.070
  677WAT     H2 2574   1.649   1.640   6.223
  678WAT      O 2575   0.598   0.729   5.856
  678WAT     H1 2576   0.622   0.798   5.788
  678WAT     H2 2577   0.520   0.762   5.910
  679WAT      O 2578   1.281   0.345   6.530
  679WAT     H1 2579   1.195   0.295   6.517
  679WAT     H2 2580   1.343   0.291   6.586
  680WAT      O 2581   1.576   1.662   5.893
  680WAT     H1 2582   1.665   1.708   5.896
  680WAT     H2 2583   1.555   1.638   5.798
  681WAT      O 2584   0.807   0.605   7.051
  681WAT     H1 2585   0.760   0.602   7.140
  681WAT     H2 2586   0.756   0.550   6.985
  682WAT      O 2587   0.991   0.410   6.828
  682WAT     H1 2588   0.914   0.444   6.882
  682WAT     H2 2589   0.957   0.359   6.749
  683WAT      O 2590   1.041   0.701   6.015
  683WAT     H1 2591   1.067   0.697   6.111
  683WAT     H2 2592   0.956   0.650   6.001
  684WAT      O 2593   0.076   0.811   6.375
  684WAT     H1 2594   0.175   0.799   6.384
  684WAT     H2 2595   0.052   0.906   6.396
  685WAT      O 2596   0.130   1.821   7.157
  685WAT     H1 2597   0.120   1.806   7.256
  685WAT     H2 2598   0.044   1.857   7.121
  686WAT      O 2599   0.865   0.348   5.781
  686WAT     H1 2600   0.924   0.411   5.732
  686WAT     H2 2601   0.884   0.254   5.752
  687WAT      O 2602   1.362   1.144   6.131
  687WAT     H1 2603   1.445   1.115   6.083
  687WAT     H2 2604   1.313   1.211   6.075
  688WAT      O 2605   0.550   0.196   6.471
  688WAT     H1 2606   0.545   0.191   6.571
  688WAT     H2 2607   0.552   0.292   6.442
  689WAT      O 2608   1.008   1.456   6.063
  689WAT     H1 2609   0.962   1.528   6.011
  689WAT     H2 2610   1.004   1.476   6.161
  690WAT      O 2611   0.351   1.801   6.439
  690WAT     H1 2612   0.401   1.715   6.445
  690WAT     H2 2613   0.416   1.878   6.436
  691WAT      O 2614   1.795   1.066   6.459
  691WAT     H1 2615   1.733   1.051   6.383
  691WAT     H2 2616   1.743   1.077   6.544
  692WAT      O 2617   0.321   0.943   5.828
  692WAT     H1 2618   0.403   0.982   5.786
  692WAT     H2 2619   0.294   0.861   5.779
  693WAT      O 2620   1.458   0.735   6.314
  693WAT     H1 2621   1.453   0.670   6.389
  693WAT     H2 2622   1.538   0.794   6.327
  694WAT      O 2623   1.111   1.776   5.823
  694WAT     H1 2624   1.051   1.714   5.873
  694WAT     H2 2625   1.142   1.732   5.738
  695WAT      O 2626   1.632   1.377   5.667
  695WAT     H1 2627   1.600   1.471   5.657
  695WAT     H2 2628   1.556   1.314   5.655
  696WAT      O 2629   0.464   1.743   5.909
  696WAT     H1 2630   0.497   1.782   5.995
  696WAT     H2 2631   0.540   1.736   5.844
  697WAT      O 2632   1.400   0.107   6.012
  697WAT     H1 2633   1.376   0.070   5.922
  697WAT     H2 2634   1.499   0.123   6.016
  698WAT      O 2635   0.249   1.785   6.827
  698WAT     H1 2636   0.306   1.720   6.877
  698WAT     H2 2637   0.233   1.752   6.734
  699WAT      O 2638   0.940   1.698   6.490
  699WAT     H1 2639   1.020   1.641   6.511
  699WAT     H2 2640   0.891   1.658   6.413
  700WAT      O 2641   0.382   0.700   6.066
  700WAT     H1 2642   0.427   0.610   6.063
  700WAT     H2 2643   0.288   0.689   6.099
  701WAT      O 2644   0.614   0.122   5.703
  701WAT     H1 2645   0.712   0.100   5.710
  701WAT     H2 2646   0.583   0.105   5.610
  702WAT      O 2647   0.888   1.514   6.781
  702WAT     H1 2648   0.865   1.489   6.687
  702WAT     H2 2649   0.949   1.445   6.820
  703WAT      O 2650   0.803   1.402   6.510
  703WAT     H1 2651   0.893   1.416   6.468
  703WAT     H2 2652   0.732   1.404   6.439
  704WAT      O 2653   0.922   0.503   6.485
  704WAT     H1 2654   0.897   0.494   6.389
  704WAT     H2 2655   0.970   0.421   6.516
  705WAT      O 2656   0.539   0.064   6.098
  705WAT     H1 2657   0.458   0.065   6.156
  705WAT     H2 2658   0.542   0.147   6.043
  706WAT      O 2659   1.434   1.188   5.627
  706WAT     H1 2660   1.466   1.112   5.684
  706WAT     H2 2661   1.342   1.215   5.657
  707WAT      O 2662   0.297   0.035   5.757
  707WAT     H1 2663   0.346   0.119   5.736
  707WAT     H2 2664   0.359  -0.030   5.802
  708WAT      O 2665   0.935   0.236   6.066
  708WAT     H1 2666   0.887   0.277   5.988
  708WAT     H2 2667   1.034   0.234   6.047
  709WAT      O 2668   1.227   1.570   6.379
  709WAT     H1 2669   1.248   1.644   6.314
  709WAT     H2 2670   1.295   1.570   6.452
  710WAT      O 2671   0.459   1.152   6.327
  710WAT     H1 2672   0.388   1.125   6.392
  710WAT     H2 2673   0.433   1.124   6.234
  711WAT      O 2674   1.271   1.797   6.177
  711WAT     H1 2675   1.315   1.861   6.113
  711WAT     H2 2676   1.221   1.849   6.247
  712WAT      O 2677   1.032   0.549   5.602
  712WAT     H1 2678   0.991   0.631   5.563
  712WAT     H2 2679   1.096   0.575   5.675
  713WAT      O 2680   0.561   0.222   6.733
  713WAT     H1 2681   0.599   0.138   6.770
  713WAT     H2 2682   0.473   0.241   6.777
  714WAT      O 2683   0.866   0.454   6.228
  714WAT     H1 2684   0.834   0.526   6.166
  714WAT     H2 2685   0.890   0.373   6.175
  715WAT      O 2686   1.017   0.039   6.339
  715WAT     H1 2687   0.945   0.044   6.270
  715WAT     H2 2688   0.993  -0.030   6.408
  716WAT      O 2689   1.429   1.173   6.453
  716WAT     H1 2690   1.374   1.089   6.446
  716WAT     H2 2691   1.455   1.202   6.361
  717WAT      O 2692   1.466   0.590   6.578
  717WAT     H1 2693   1.436   0.495   6.585
  717WAT     H2 2694   1.539   0.606   6.644
  718WAT      O 2695   1.857   0.833   5.963
  718WAT     H1 2696   1.899   0.769   6.027
  718WAT     H2 2697   1.819   0.782   5.885
  719WAT      O 2698   0.488   1.385   5.760
  719WAT     H1 2699   0.401   1.370   5.807
  719WAT     H2 2700   0.471   1.411   5.665
  720WAT      O 2701   1.664   1.280   6.243
  720WAT     H1 2702   1.763   1.288   6.257
  720WAT     H2 2703   1.619   1.364   6.274
  721WAT      O 2704   1.390   0.575   5.664
  721WAT     H1 2705   1.336   0.554   5.745
  721WAT     H2 2706   1.481   0.534   5.673
  722WAT      O 2707   0.527   0.256   5.914
  722WAT     H1 2708   0.554   0.197   5.839
  722WAT     H2 2709   0.527   0.351   5.883
  723WAT      O 2710   1.754   1.223   7.174
  723WAT     H1 2711   1.845   1.184   7.161
  723WAT     H2 2712   1.762   1.319   7.198
  724WAT      O 2713   1.111   1.195   6.686
  724WAT     H1 2714   1.071   1.239   6.767
  724WAT     H2 2715   1.070   1.232   6.603
  725WAT      O 2716   1.638   1.099   6.665
  725WAT     H1 2717   1.643   1.180   6.724
  725WAT     H2 2718   1.552   1.101   6.614
  726WAT      O 2719   0.705   1.050   5.954
  726WAT     H1 2720   0.691   1.057   6.053
  726WAT     H2 2721   0.789   0.999   5.936
  727WAT      O 2722   0.410   0.813   6.837
  727WAT     H1 2723   0.496   0.825   6.887
  727WAT     H2 2724   0.368   0.726   6.864
  728WAT      O 2725   1.274   0.386   6.848
  728WAT     H1 2726   1.295   0.460   6.912
  728WAT     H2 2727   1.185   0.403   6.805
  729WAT      O 2728   0.064   1.564   6.917
  729WAT     H1 2729   0.018   1.646   6.883
  729WAT     H2 2730   0.162   1.583   6.926
  730WAT      O 2731   0.367   1.100   6.087
  730WAT     H1 2732   0.360   1.183   6.031
  730WAT     H2 2733   0.371   1.020   6.027
  731WAT      O 2734   0.566   0.537   6.451
  731WAT     H1 2735   0.578   0.603   6.377
  731WAT     H2 2736   0.612   0.571   6.534
  732WAT      O 2737   1.252   1.348   5.974
  732WAT     H1 2738   1.302   1.425   6.014
  732WAT     H2 2739   1.157   1.350   6.006
  733WAT      O 2740   1.272   1.445   6.728
  733WAT     H1 2741   1.319   1.458   6.815
  733WAT     H2 2742   1.206   1.371   6.737
  734WAT      O 2743   1.582   0.639   6.058
  734WAT     H1 2744   1.551   0.700   6.131
  734WAT     H2 2745   1.632   0.691   5.989
  735WAT      O 2746   0.354   1.510   6.915
  735WAT     H1 2747   0.333   1.466   6.828
  735WAT     H2 2748   0.451   1.536   6.918
  736WAT      O 2749   0.573   0.870   6.615
  736WAT     H1 2750   0.617   0.959   6.606
  736WAT     H2 2751   0.510   0.870   6.692
  737WAT      O 2752   1.360   0.862   6.631
  737WAT     H1 2753   1.285   0.862   6.565
  737WAT     H2 2754   1.397   0.770   6.640
  738WAT      O 2755   1.209   0.525   5.861
  738WAT     H1 2756   1.222   0.441   5.915
  738WAT     H2 2757   1.180   0.599   5.921
  739WAT      O 2758   0.307   0.213   6.817
  739WAT     H1 2759   0.284   0.250   6.907
  739WAT     H2 2760   0.277   0.118   6.811
  740WAT      O 2761   0.037   1.310   6.868
  740WAT     H1 2762   0.090   1.261   6.936
  740WAT     H2 2763   0.059   1.408   6.873
  741WAT      O 2764   0.732   0.634   6.650
  741WAT     H1 2765   0.791   0.608   6.574
  741WAT     H2 2766   0.704   0.730   6.639
  742WAT      O 2767   0.307   0.063   6.204
  742WAT     H1 2768   0.296   0.157   6.237
  742WAT     H2 2769   0.302   0.000   6.281
  743WAT      O 2770   1.622   0.367   5.960
  743WAT     H1 2771   1.624   0.291   6.024
  743WAT     H2 2772   1.574   0.444   6.000
  744WAT      O 2773   1.023   0.766   6.552
  744WAT     H1 2774   1.038   0.787   6.648
  744WAT     H2 2775   0.993   0.671   6.543
  745WAT      O 2776   1.859   1.518   7.191
  745WAT     H1 2777   1.873   1.545   7.096
  745WAT     H2 2778   1.942   1.540   7.244
  746WAT      O 2779   1.540   0.274   5.711
  746WAT     H1 2780   1.479   0.199   5.734
  746WAT     H2 2781   1.562   0.326   5.794
  747WAT      O 2782   1.303   0.838   5.628
  747WAT     H1 2783   1.337   0.745   5.643
  747WAT     H2 2784   1.321   0.865   5.533
  748WAT      O 2785   1.068   1.333   6.435
  748WAT     H1 2786   1.075   1.249   6.380
  748WAT     H2 2787   1.130   1.402   6.399
  749WAT      O 2788   0.319   0.810   6.535
  749WAT     H1 2789   0.412   0.846   6.540
  749WAT     H2 2790   0.313   0.725   6.587
  750WAT      O 2791   0.339   0.509   6.592
  750WAT     H1 2792   0.287   0.426   6.575
  750WAT     H2 2793   0.416   0.514   6.528
  751WAT      O 2794   1.160   0.207   7.063
  751WAT     H1 2795   1.160   0.271   7.140
  751WAT     H2 2796   1.188   0.255   6.980
  752WAT      O 2797   0.008   1.326   5.786
  752WAT     H1 2798  -0.085   1.347   5.755
  752WAT     H2 2799   0.018   1.227   5.799
  753WAT      O 2800   0.088   1.801   6.513
  753WAT     H1 2801   0.046   1.715   6.486
  753WAT     H2 2802   0.182   1.804   6.479
  754WAT      O 2803   0.504   1.568   6.496
  754WAT     H1 2804   0.570   1.642   6.505
  754WAT     H2 2805   0.548   1.489   6.454
  755WAT      O 2806   1.002   0.796   6.824
  755WAT     H1 2807   1.043   0.764   6.910
  755WAT     H2 2808   0.906   0.769   6.821
  756WAT      O 2809   0.040   0.544   6.700
  756WAT     H1 2810   0.125   0.511   6.659
  756WAT     H2 2811   0.053   0.559   6.798
  757WAT      O 2812   0.815   0.572   5.911
  757WAT     H1 2813   0.822   0.483   5.865
  757WAT     H2 2814   0.721   0.606   5.903
  758WAT      O 2815   1.657   0.604   6.792
  758WAT     H1 2816   1.619   0.535   6.854
  758WAT     H2 2817   1.739   0.568   6.748
  759WAT      O 2818   0.671   0.464   6.855
  759WAT     H1 2819   0.637   0.375   6.825
  759WAT     H2 2820   0.697   0.518   6.775
  760WAT      O 2821   0.930   1.678   7.051
  760WAT     H1 2822   0.906   1.660   6.956
  760WAT     H2 2823   0.960   1.772   7.061
  761WAT      O 2824   0.473   0.500   5.777
  761WAT     H1 2825   0.534   0.580   5.781
  761WAT     H2 2826   0.378   0.531   5.784
  762WAT      O 2827   0.159   1.137   7.052
  762WAT     H1 2828   0.181   1.076   7.128
  762WAT     H2 2829   0.169   1.088   6.966
  763WAT      O 2830   1.347   1.059   6.820
  763WAT     H1 2831   1.371   0.996   6.746
  763WAT     H2 2832   1.257   1.099   6.802
  764WAT      O 2833   1.302   0.855   5.895
  764WAT     H1 2834   1.216   0.824   5.937
  764WAT     H2 2835   1.298   0.841   5.796
  765WAT      O 2836   1.759   1.747   6.740
  765WAT     H1 2837   1.820   1.777   6.667
  765WAT     H2 2838   1.721   1.658   6.718
  766WAT      O 2839   1.252   1.731   6.714
  766WAT     H1 2840   1.336   1.736   6.660
  766WAT     H2 2841   1.229   1.635   6.732
  767WAT      O 2842   0.083   1.258   6.608
  767WAT     H1 2843   0.078   1.257   6.708
  767WAT     H2 2844   0.000   1.217   6.570
  768WAT      O 2845   1.726   0.135   6.109
  768WAT     H1 2846   1.799   0.118   6.042
  768WAT     H2 2847   1.695   0.048   6.147
  769WAT      O 2848   1.388   1.573   6.063
  769WAT     H1 2849   1.455   1.585   5.989
  769WAT     H2 2850   1.348   1.662   6.086
  770WAT      O 2851   1.280   0.927   6.258
  770WAT     H1 2852   1.340   0.846   6.260
  770WAT     H2 2853   1.320   0.996   6.198
  771WAT      O 2854   0.672   1.616   5.740
  771WAT     H1 2855   0.681   1.626   5.641
  771WAT     H2 2856   0.632   1.527   5.761
  772WAT      O 2857   1.841   0.175   6.549
  772WAT     H1 2858   1.880   0.090   6.513
  772WAT     H2 2859   1.743   0.177   6.530
  773WAT      O 2860   0.263   0.326   6.306
  773WAT     H1 2861   0.184   0.377   6.272
  773WAT     H2 2862   0.254   0.311   6.404
  774WAT      O 2863   1.194   1.612   5.617
  774WAT     H1 2864   1.200   1.519   5.654
  774WAT     H2 2865   1.135   1.612   5.537
  775WAT      O 2866   0.822   1.002   6.958
  775WAT     H1 2867   0.862   1.001   6.866
  775WAT     H2 2868   0.832   1.094   6.998
  776WAT      O 2869   0.916   0.910   5.877
  776WAT     H1 2870   0.979   0.948   5.809
  776WAT     H2 2871   0.956   0.827   5.916
  777WAT      O 2872   1.504   1.607   5.630
  777WAT     H1 2873   1.412   1.644   5.637
  777WAT     H2 2874   1.542   1.627   5.540
  778WAT      O 2875   1.614   1.292   6.875
  778WAT     H1 2876   1.674   1.295   6.955
  778WAT     H2 2877   1.539   1.356   6.888
  779WAT      O 2878   1.039   1.098   6.282
  779WAT     H1 2879   0.969   1.051   6.336
  779WAT     H2 2880   1.098   1.030   6.239
  780WAT      O 2881   1.014   0.236   6.557
  780WAT     H1 2882   1.006   0.200   6.464
  780WAT     H2 2883   1.012   0.160   6.622
  781WAT      O 2884   0.590   1.487   6.077
  781WAT     H1 2885   0.632   1.429   6.007
  781WAT     H2 2886   0.546   1.566   6.033
  782WAT      O 2887   1.709   0.385   6.967
  782WAT     H1 2888   1.782   0.454   6.971
  782WAT     H2 2889   1.737   0.310   6.908
  783WAT      O 2890   0.255   1.348   5.876
  783WAT     H1 2891   0.159   1.349   5.849
  783WAT     H2 2892   0.267   1.401   5.960
  784WAT      O 2893   0.075   0.345   5.619
  784WAT     H1 2894  -0.017   0.317   5.590
  784WAT     H2 2895   0.106   0.422   5.563
  785WAT      O 2896   0.072   0.166   5.904
  785WAT     H1 2897   0.055   0.249   5.850
  785WAT     H2 2898   0.162   0.129   5.882
  786WAT      O 2899   1.183   1.335   5.705
  786WAT     H1 2900   1.084   1.324   5.707
  786WAT     H2 2901   1.217   1.350   5.798
  787WAT      O 2902   1.493   1.767   6.545
  787WAT     H1 2903   1.526   1.831   6.476
  787WAT     H2 2904   1.559   1.761   6.620
  788WAT      O 2905   1.450   1.220   7.219
  788WAT     H1 2906   1.441   1.210   7.318
  788WAT     H2 2907   1.546   1.213   7.193
  789WAT      O 2908   0.390   1.741   7.146
  789WAT     H1 2909   0.299   1.782   7.144
  789WAT     H2 2910   0.383   1.647   7.178
  790WAT      O 2911   1.674   0.883   6.840
  790WAT     H1 2912   1.647   0.794   6.803
  790WAT     H2 2913   1.675   0.951   6.767
  791WAT      O 2914   1.225   0.325   6.035
  791WAT     H1 2915   1.290   0.251   6.024
  791WAT     H2 2916   1.245   0.375   6.119
  792WAT      O 2917   0.594   0.745   6.238
  792WAT     H1 2918   0.644   0.830   6.219
  792WAT     H2 2919   0.506   0.747   6.190
  793WAT      O 2920   1.730   0.934   7.103
  793WAT     H1 2921   1.768   1.025   7.118
  793WAT     H2 2922   1.722   0.917   7.004
  794WAT      O 2923   0.859   1.374   5.602
  794WAT     H1 2924   0.813   1.389   5.690
  794WAT     H2 2925   0.903   1.459   5.572
  795WAT      O 2926   0.661   1.790   6.539
  795WAT     H1 2927   0.615   1.878   6.526
  795WAT     H2 2928   0.760   1.802   6.532
  796WAT      O 2929   0.859   0.956   6.447
  796WAT     H1 2930   0.913   0.887   6.495
  796WAT     H2 2931   0.827   1.025   6.513
  797WAT      O 2932   1.083   0.984   5.673
  797WAT     H1 2933   1.060   1.037   5.591
  797WAT     H2 2934   1.164   0.928   5.654
  798WAT      O 2935   1.861   1.569   6.437
  798WAT     H1 2936   1.790   1.557   6.367
  798WAT     H2 2937   1.862   1.490   6.497
  799WAT      O 2938   0.079   1.240   6.239
  799WAT     H1 2939   0.078   1.193   6.327
  799WAT     H2 2940   0.161   1.212   6.188
  800WAT      O 2941   1.824   0.192   6.813
  800WAT     H1 2942   1.820   0.102   6.857
  800WAT     H2 2943   1.827   0.181   6.714
  801WAT      O 2944   0.428   0.424   6.106
  801WAT     H1 2945   0.458   0.352   6.044
  801WAT     H2 2946   0.389   0.384   6.189
  802WAT      O 2947   1.705   1.487   6.690
  802WAT     H1 2948   1.612   1.462   6.663
  802WAT     H2 2949   1.731   1.437   6.772
  803WAT      O 2950   0.317   0.547   6.866
  803WAT     H1 2951   0.355   0.488   6.938
  803WAT     H2 2952   0.357   0.521   6.778
  804WAT      O 2953   0.812   1.586   6.273
  804WAT     H1 2954   0.844   1.596   6.179
  804WAT     H2 2955   0.733   1.524   6.275
  805WAT      O 2956   1.424   0.214   6.698
  805WAT     H1 2957   1.476   0.149   6.753
  805WAT     H2 2958   1.375   0.277   6.759
  806WAT      O 2959   1.001   0.034   6.740
  806WAT     H1 2960   0.938  -0.038   6.709
  806WAT     H2 2961   1.094  -0.002   6.740
  807WAT      O 2962   0.770   1.330   5.887
  807WAT     H1 2963   0.724   1.243   5.904
  807WAT     H2 2964   0.861   1.327   5.928
  808WAT      O 2965   0.618   1.567   6.870
  808WAT     H1 2966   0.613   1.649   6.927
  808WAT     H2 2967   0.707   1.564   6.825
  809WAT      O 2968   1.352   0.052   5.754
  809WAT     H1 2969   1.387   0.011   5.670
  809WAT     H2 2970   1.262   0.014   5.774
  810WAT      O 2971   1.300   0.453   6.277
  810WAT     H1 2972   1.241   0.533   6.281
  810WAT     H2 2973   1.315   0.418   6.370
  811WAT      O 2974   1.593   0.221   6.468
  811WAT     H1 2975   1.509   0.220   6.522
  811WAT     H2 2976   1.595   0.304   6.412
  812WAT      O 2977   0.039   1.077   5.886
  812WAT     H1 2978   0.138   1.066   5.877
  812WAT     H2 2979  -0.001   0.991   5.918
  813WAT      O 2980   0.875   1.646   5.923
  813WAT     H1 2981   0.798   1.611   5.869
  813WAT     H2 2982   0.843   1.717   5.985
  814WAT      O 2983   0.230   2.490   0.113
  814WAT     H1 2984   0.137   2.488   0.150
  814WAT     H2 2985   0.231   2.451   0.021
  815WAT      O 2986   0.225   2.137   0.996
  815WAT     H1 2987   0.260   2.120   1.088
  815WAT     H2 2988   0.137   2.092   0.984
  816WAT      O 2989   0.019   2.230   0.647
  816WAT     H1 2990  -0.063   2.273   0.686
  816WAT     H2 2991  -0.009   2.157   0.584
  817WAT      O 2992   0.569   3.137   1.165
  817WAT     H1 2993   0.476   3.130   1.128
  817WAT     H2 2994   0.580   3.226   1.209
  818WAT      O 2995   1.555   3.373   0.703
  818WAT     H1 2996   1.498   3.357   0.784
  818WAT     H2 2997   1.496   3.383   0.623
  819WAT      O 2998   1.135   2.565   0.717
  819WAT     H1 2999   1.192   2.643   0.692
  819WAT     H2 3000   1.075   2.591   0.793
  820WAT      O 3001   1.755   2.469   0.231
  820WAT     H1 3002   1.743   2.456   0.132
  820WAT     H2 3003   1.725   2.388   0.280
  821WAT      O 3004   0.768   3.006   1.023
  821WAT     H1 3005   0.690   3.023   1.083
  821WAT     H2 3006   0.802   3.093   0.987
  822WAT      O 3007   0.850   2.660   1.823
  822WAT     H1 3008   0.846   2.736   1.888
  822WAT     H2 3009   0.872   2.696   1.732
  823WAT      O 3010   0.685   2.874   0.665
  823WAT     H1 3011   0.754   2.858   0.735
  823WAT     H2 3012   0.612   2.931   0.703
  824WAT      O 3013   0.686   3.023   1.803
  824WAT     H1 3014   0.746   3.102   1.817
  824WAT     H2 3015   0.600   3.054   1.762
  825WAT      O 3016   0.335   3.297   1.061
  825WAT     H1 3017   0.257   3.266   1.008
  825WAT     H2 3018   0.393   3.355   1.004
  826WAT      O 3019   1.460   3.367   1.339
  826WAT     H1 3020   1.484   3.461   1.365
  826WAT     H2 3021   1.444   3.313   1.421
  827WAT      O 3022   0.438   2.254   1.499
  827WAT     H1 3023   0.520   2.198   1.508
  827WAT     H2 3024   0.357   2.196   1.503
  828WAT      O 3025   1.603   2.309   0.737
  828WAT     H1 3026   1.529   2.355   0.687
  828WAT     H2 3027   1.654   2.377   0.790
  829WAT      O 3028   0.231   3.575   0.483
  829WAT     H1 3029   0.265   3.652   0.537
  829WAT     H2 3030   0.275   3.575   0.393
  830WAT      O 3031   1.127   3.203   1.690
  830WAT     H1 3032   1.174   3.203   1.778
  830WAT     H2 3033   1.079   3.116   1.679
  831WAT      O 3034   0.230   3.296   0.538
  831WAT     H1 3035   0.204   3.392   0.538
  831WAT     H2 3036   0.159   3.242   0.583
  832WAT      O 3037   0.240   2.953   0.886
  832WAT     H1 3038   0.254   2.869   0.938
  832WAT     H2 3039   0.185   3.017   0.941
  833WAT      O 3040   0.620   3.648   1.439
  833WAT     H1 3041   0.528   3.631   1.474
  833WAT     H2 3042   0.648   3.740   1.465
  834WAT      O 3043   0.606   2.826   0.123
  834WAT     H1 3044   0.613   2.910   0.069
  834WAT     H2 3045   0.652   2.839   0.211
  835WAT      O 3046   1.594   1.976   1.480
  835WAT     H1 3047   1.576   2.043   1.408
  835WAT     H2 3048   1.591   2.022   1.569
  836WAT      O 3049   0.122   2.505   0.563
  836WAT     H1 3050   0.077   2.417   0.580
  836WAT     H2 3051   0.121   2.559   0.647
  837WAT      O 3052   1.842   3.629   0.359
  837WAT     H1 3053   1.896   3.600   0.439
  837WAT     H2 3054   1.872   3.719   0.330
  838WAT      O 3055   0.027   3.458   0.117
  838WAT     H1 3056   0.008   3.362   0.138
  838WAT     H2 3057  -0.006   3.516   0.192
  839WAT      O 3058   1.689   2.784   0.612
  839WAT     H1 3059   1.784   2.755   0.620
  839WAT     H2 3060   1.681   2.849   0.537
  840WAT      O 3061   1.641   2.970   0.432
  840WAT     H1 3062   1.727   2.972   0.380
  840WAT     H2 3063   1.655   3.017   0.520
  841WAT      O 3064   0.113   2.599   1.597
  841WAT     H1 3065   0.201   2.586   1.642
  841WAT     H2 3066   0.100   2.696   1.575
  842WAT      O 3067   0.613   3.227   0.726
  842WAT     H1 3068   0.564   3.140   0.735
  842WAT     H2 3069   0.590   3.270   0.639
  843WAT      O 3070   1.293   3.090   1.423
  843WAT     H1 3071   1.330   3.017   1.365
  843WAT     H2 3072   1.345   3.095   1.508
  844WAT      O 3073   0.809   1.866   0.502
  844WAT     H1 3074   0.849   1.957   0.493
  844WAT     H2 3075   0.709   1.874   0.508
  845WAT      O 3076   0.197   2.838   1.264
  845WAT     H1 3077   0.286   2.793   1.250
  845WAT     H2 3078   0.124   2.773   1.245
  846WAT      O 3079   1.525   2.861   0.190
  846WAT     H1 3080   1.462   2.785   0.203
  846WAT     H2 3081   1.573   2.879   0.276
  847WAT      O 3082   1.187   3.654   1.616
  847WAT     H1 3083   1.211   3.714   1.540
  847WAT     H2 3084   1.194   3.559   1.586
  848WAT      O 3085   0.317   2.113   1.801
  848WAT     H1 3086   0.388   2.184   1.807
  848WAT     H2 3087   0.229   2.152   1.829
  849WAT      O 3088   1.466   3.279   0.953
  849WAT     H1 3089   1.407   3.285   1.033
  849WAT     H2 3090   1.451   3.191   0.907
  850WAT      O 3091   1.667   3.576   0.572
  850WAT     H1 3092   1.626   3.553   0.484
  850WAT     H2 3093   1.649   3.502   0.637
  851WAT      O 3094   0.598   2.591   0.270
  851WAT     H1 3095   0.622   2.660   0.202
  851WAT     H2 3096   0.520   2.624   0.324
  852WAT      O 3097   1.281   2.207   0.944
  852WAT     H1 3098   1.195   2.157   0.931
  852WAT     H2 3099   1.343   2.153   1.000
  853WAT      O 3100   1.576   3.524   0.307
  853WAT     H1 3101   1.665   3.570   0.310
  853WAT     H2 3102   1.555   3.500   0.212
  854WAT      O 3103   0.807   2.467   1.465
  854WAT     H1 3104   0.760   2.464   1.554
  854WAT     H2 3105   0.756   2.412   1.399
  855WAT      O 3106   1.394   2.331   1.674
  855WAT     H1 3107   1.374   2.374   1.762
  855WAT     H2 3108   1.472   2.269   1.683
  856WAT      O 3109   0.973   2.752   1.572
  856WAT     H1 3110   1.019   2.668   1.543
  856WAT     H2 3111   0.917   2.786   1.497
  857WAT      O 3112   0.991   2.272   1.242
  857WAT     H1 3113   0.914   2.306   1.296
  857WAT     H2 3114   0.957   2.221   1.163
  858WAT      O 3115   1.041   2.563   0.429
  858WAT     H1 3116   1.067   2.559   0.525
  858WAT     H2 3117   0.956   2.512   0.415
  859WAT      O 3118   0.076   2.673   0.789
  859WAT     H1 3119   0.175   2.661   0.798
  859WAT     H2 3120   0.052   2.768   0.810
  860WAT      O 3121   0.130   3.683   1.571
  860WAT     H1 3122   0.120   3.668   1.670
  860WAT     H2 3123   0.044   3.719   1.535
  861WAT      O 3124   0.865   2.210   0.195
  861WAT     H1 3125   0.924   2.273   0.146
  861WAT     H2 3126   0.884   2.116   0.166
  862WAT      O 3127   1.719   2.447   1.831
  862WAT     H1 3128   1.693   2.536   1.795
  862WAT     H2 3129   1.717   2.379   1.758
  863WAT      O 3130   1.362   3.006   0.545
  863WAT     H1 3131   1.445   2.977   0.497
  863WAT     H2 3132   1.313   3.073   0.489
  864WAT      O 3133   0.550   2.058   0.885
  864WAT     H1 3134   0.545   2.053   0.985
  864WAT     H2 3135   0.552   2.154   0.856
  865WAT      O 3136   1.008   3.318   0.477
  865WAT     H1 3137   0.962   3.390   0.425
  865WAT     H2 3138   1.004   3.338   0.575
  866WAT      O 3139   0.351   3.663   0.853
  866WAT     H1 3140   0.401   3.577   0.859
  866WAT     H2 3141   0.416   3.740   0.850
  867WAT      O 3142   1.795   2.928   0.873
  867WAT     H1 3143   1.733   2.913   0.797
  867WAT     H2 3144   1.743   2.939   0.958
  868WAT      O 3145   1.227   3.412   1.506
  868WAT     H1 3146   1.233   3.335   1.570
  868WAT     H2 3147   1.175   3.386   1.426
  869WAT      O 3148   0.321   2.805   0.242
  869WAT     H1 3149   0.403   2.844   0.200
  869WAT     H2 3150   0.294   2.723   0.193
  870WAT      O 3151   1.458   2.597   0.728
  870WAT     H1 3152   1.453   2.532   0.803
  870WAT     H2 3153   1.538   2.656   0.741
  871WAT      O 3154   0.461   3.128   1.727
  871WAT     H1 3155   0.411   3.129   1.641
  871WAT     H2 3156   0.398   3.110   1.803
  872WAT      O 3157   1.111   3.638   0.237
  872WAT     H1 3158   1.051   3.576   0.287
  872WAT     H2 3159   1.142   3.594   0.152
  873WAT      O 3160   0.202   2.147   1.498
  873WAT     H1 3161   0.122   2.207   1.485
  873WAT     H2 3162   0.192   2.098   1.584
  874WAT      O 3163   1.632   3.239   0.081
  874WAT     H1 3164   1.600   3.333   0.071
  874WAT     H2 3165   1.556   3.176   0.069
  875WAT      O 3166   0.464   3.605   0.323
  875WAT     H1 3167   0.497   3.644   0.409
  875WAT     H2 3168   0.540   3.598   0.258
  876WAT      O 3169   1.400   1.969   0.426
  876WAT     H1 3170   1.376   1.932   0.336
  876WAT     H2 3171   1.499   1.985   0.430
  877WAT      O 3172   0.249   3.647   1.241
  877WAT     H1 3173   0.306   3.582   1.291
  877WAT     H2 3174   0.233   3.614   1.148
  878WAT      O 3175   0.940   3.560   0.904
  878WAT     H1 3176   1.020   3.503   0.925
  878WAT     H2 3177   0.891   3.520   0.827
  879WAT      O 3178   0.382   2.562   0.480
  879WAT     H1 3179   0.427   2.472   0.477
  879WAT     H2 3180   0.288   2.551   0.513
  880WAT      O 3181   1.547   2.084   1.729
  880WAT     H1 3182   1.542   2.121   1.821
  880WAT     H2 3183   1.475   2.015   1.717
  881WAT      O 3184   0.781   2.126   1.749
  881WAT     H1 3185   0.848   2.065   1.792
  881WAT     H2 3186   0.708   2.145   1.814
  882WAT      O 3187   0.888   3.376   1.195
  882WAT     H1 3188   0.865   3.351   1.101
  882WAT     H2 3189   0.949   3.307   1.234
  883WAT      O 3190   1.351   2.452   1.433
  883WAT     H1 3191   1.379   2.409   1.518
  883WAT     H2 3192   1.376   2.548   1.434
  884WAT      O 3193   0.803   3.264   0.924
  884WAT     H1 3194   0.893   3.278   0.882
  884WAT     H2 3195   0.732   3.266   0.853
  885WAT      O 3196   0.922   2.365   0.899
  885WAT     H1 3197   0.897   2.356   0.803
  885WAT     H2 3198   0.970   2.283   0.930
  886WAT      O 3199   0.539   1.926   0.512
  886WAT     H1 3200   0.458   1.927   0.570
  886WAT     H2 3201   0.542   2.009   0.457
  887WAT      O 3202   1.434   3.050   0.041
  887WAT     H1 3203   1.466   2.974   0.098
  887WAT     H2 3204   1.342   3.077   0.071
  888WAT      O 3205   0.935   2.098   0.480
  888WAT     H1 3206   0.887   2.139   0.402
  888WAT     H2 3207   1.034   2.096   0.461
  889WAT      O 3208   1.076   2.545   1.464
  889WAT     H1 3209   0.996   2.484   1.467
  889WAT     H2 3210   1.157   2.492   1.440
  890WAT      O 3211   1.227   3.432   0.793
  890WAT     H1 3212   1.248   3.506   0.728
  890WAT     H2 3213   1.295   3.432   0.866
  891WAT      O 3214   0.459   3.014   0.741
  891WAT     H1 3215   0.388   2.987   0.806
  891WAT     H2 3216   0.433   2.986   0.648
  892WAT      O 3217   1.271   3.659   0.591
  892WAT     H1 3218   1.315   3.723   0.527
  892WAT     H2 3219   1.221   3.711   0.661
  893WAT      O 3220   1.032   2.411   0.016
  893WAT     H1 3221   0.991   2.493  -0.023
  893WAT     H2 3222   1.096   2.437   0.089
  894WAT      O 3223   0.078   2.418   1.386
  894WAT     H1 3224   0.170   2.417   1.345
  894WAT     H2 3225   0.072   2.492   1.453
  895WAT      O 3226   0.561   2.084   1.147
  895WAT     H1 3227   0.599   2.000   1.184
  895WAT     H2 3228   0.473   2.103   1.191
  896WAT      O 3229   0.866   2.316   0.642
  896WAT     H1 3230   0.834   2.388   0.580
  896WAT     H2 3231   0.890   2.235   0.589
  897WAT      O 3232   1.017   1.901   0.753
  897WAT     H1 3233   0.945   1.906   0.684
  897WAT     H2 3234   0.993   1.832   0.822
  898WAT      O 3235   1.429   3.035   0.867
  898WAT     H1 3236   1.374   2.951   0.860
  898WAT     H2 3237   1.455   3.064   0.775
  899WAT      O 3238   1.466   2.452   0.992
  899WAT     H1 3239   1.436   2.357   0.999
  899WAT     H2 3240   1.539   2.468   1.058
  900WAT      O 3241   1.857   2.695   0.377
  900WAT     H1 3242   1.899   2.631   0.441
  900WAT     H2 3243   1.819   2.644   0.299
  901WAT      O 3244   0.488   3.247   0.174
  901WAT     H1 3245   0.401   3.232   0.221
  901WAT     H2 3246   0.471   3.273   0.079
  902WAT      O 3247   1.664   3.142   0.657
  902WAT     H1 3248   1.763   3.150   0.671
  902WAT     H2 3249   1.619   3.226   0.688
  903WAT      O 3250   1.390   2.437   0.078
  903WAT     H1 3251   1.336   2.416   0.159
  903WAT     H2 3252   1.481   2.396   0.087
  904WAT      O 3253   0.527   2.118   0.328
  904WAT     H1 3254   0.554   2.059   0.253
  904WAT     H2 3255   0.527   2.213   0.297
  905WAT      O 3256   1.754   3.085   1.588
  905WAT     H1 3257   1.845   3.046   1.575
  905WAT     H2 3258   1.762   3.181   1.612
  906WAT      O 3259   1.064   3.209   1.340
  906WAT     H1 3260   0.984   3.186   1.395
  906WAT     H2 3261   1.147   3.183   1.389
  907WAT      O 3262   1.592   3.491   1.625
  907WAT     H1 3263   1.619   3.525   1.535
  907WAT     H2 3264   1.671   3.453   1.671
  908WAT      O 3265   1.111   3.057   1.100
  908WAT     H1 3266   1.071   3.101   1.181
  908WAT     H2 3267   1.070   3.094   1.017
  909WAT      O 3268   1.638   2.961   1.079
  909WAT     H1 3269   1.643   3.042   1.138
  909WAT     H2 3270   1.552   2.963   1.028
  910WAT      O 3271   0.915   1.951   1.402
  910WAT     H1 3272   0.940   1.931   1.307
  910WAT     H2 3273   0.987   2.007   1.444
  911WAT      O 3274   0.980   2.978   1.719
  911WAT     H1 3275   0.881   2.984   1.729
  911WAT     H2 3276   1.003   2.898   1.663
  912WAT      O 3277   0.705   2.912   0.368
  912WAT     H1 3278   0.691   2.919   0.467
  912WAT     H2 3279   0.789   2.861   0.350
  913WAT      O 3280   0.410   2.675   1.251
  913WAT     H1 3281   0.496   2.687   1.301
  913WAT     H2 3282   0.368   2.588   1.278
  914WAT      O 3283   1.274   2.248   1.262
  914WAT     H1 3284   1.295   2.322   1.326
  914WAT     H2 3285   1.185   2.265   1.219
  915WAT      O 3286   0.064   3.426   1.331
  915WAT     H1 3287   0.018   3.508   1.297
  915WAT     H2 3288   0.162   3.445   1.340
  916WAT      O 3289   0.367   2.962   0.501
  916WAT     H1 3290   0.360   3.045   0.445
  916WAT     H2 3291   0.371   2.882   0.441
  917WAT      O 3292   0.566   2.399   0.865
  917WAT     H1 3293   0.578   2.465   0.791
  917WAT     H2 3294   0.612   2.433   0.948
  918WAT      O 3295   1.252   3.210   0.388
  918WAT     H1 3296   1.302   3.287   0.428
  918WAT     H2 3297   1.157   3.212   0.420
  919WAT      O 3298   1.272   3.307   1.142
  919WAT     H1 3299   1.319   3.320   1.229
  919WAT     H2 3300   1.206   3.233   1.151
  920WAT      O 3301   1.582   2.501   0.472
  920WAT     H1 3302   1.551   2.562   0.545
  920WAT     H2 3303   1.632   2.553   0.403
  921WAT      O 3304   0.354   3.372   1.329
  921WAT     H1 3305   0.333   3.328   1.242
  921WAT     H2 3306   0.451   3.398   1.332
  922WAT      O 3307   0.402   2.613   1.598
  922WAT     H1 3308   0.470   2.668   1.551
  922WAT     H2 3309   0.442   2.525   1.625
  923WAT      O 3310   1.587   2.641   1.670
  923WAT     H1 3311   1.495   2.679   1.665
  923WAT     H2 3312   1.647   2.688   1.605
  924WAT      O 3313   1.013   1.967   1.770
  924WAT     H1 3314   1.019   2.052   1.718
  924WAT     H2 3315   1.045   1.891   1.713
  925WAT      O 3316   0.504   1.912   1.740
  925WAT     H1 3317   0.462   1.855   1.670
  925WAT     H2 3318   0.438   1.981   1.772
  926WAT      O 3319   0.573   2.732   1.029
  926WAT     H1 3320   0.617   2.821   1.020
  926WAT     H2 3321   0.510   2.732   1.106
  927WAT      O 3322   1.360   2.724   1.045
  927WAT     H1 3323   1.285   2.724   0.979
  927WAT     H2 3324   1.397   2.632   1.054
  928WAT      O 3325   1.209   2.387   0.275
  928WAT     H1 3326   1.222   2.303   0.329
  928WAT     H2 3327   1.180   2.461   0.335
  929WAT      O 3328   0.307   2.075   1.231
  929WAT     H1 3329   0.284   2.112   1.321
  929WAT     H2 3330   0.277   1.980   1.225
  930WAT      O 3331   0.037   3.172   1.282
  930WAT     H1 3332   0.090   3.123   1.350
  930WAT     H2 3333   0.059   3.270   1.287
  931WAT      O 3334   0.732   2.496   1.064
  931WAT     H1 3335   0.791   2.470   0.988
  931WAT     H2 3336   0.704   2.592   1.053
  932WAT      O 3337   1.728   2.797   1.854
  932WAT     H1 3338   1.682   2.790   1.765
  932WAT     H2 3339   1.666   2.841   1.920
  933WAT      O 3340   0.307   1.925   0.618
  933WAT     H1 3341   0.296   2.019   0.651
  933WAT     H2 3342   0.302   1.862   0.695
  934WAT      O 3343   1.622   2.229   0.374
  934WAT     H1 3344   1.624   2.153   0.438
  934WAT     H2 3345   1.574   2.306   0.414
  935WAT      O 3346   1.023   2.628   0.966
  935WAT     H1 3347   1.038   2.649   1.062
  935WAT     H2 3348   0.993   2.533   0.957
  936WAT      O 3349   0.980   3.435   1.700
  936WAT     H1 3350   0.960   3.479   1.612
  936WAT     H2 3351   1.019   3.344   1.684
  937WAT      O 3352   1.859   3.380   1.605
  937WAT     H1 3353   1.873   3.407   1.510
  937WAT     H2 3354   1.942   3.402   1.658
  938WAT      O 3355   0.350   2.760   1.804
  938WAT     H1 3356   0.426   2.804   1.852
  938WAT     H2 3357   0.385   2.713   1.722
  939WAT      O 3358   1.540   2.136   0.125
  939WAT     H1 3359   1.479   2.061   0.148
  939WAT     H2 3360   1.562   2.188   0.208
  940WAT      O 3361   1.303   2.700   0.042
  940WAT     H1 3362   1.337   2.607   0.057
  940WAT     H2 3363   1.321   2.727  -0.053
  941WAT      O 3364   1.068   3.195   0.849
  941WAT     H1 3365   1.075   3.111   0.794
  941WAT     H2 3366   1.130   3.264   0.813
  942WAT      O 3367   0.319   2.672   0.949
  942WAT     H1 3368   0.412   2.708   0.954
  942WAT     H2 3369   0.313   2.587   1.001
  943WAT      O 3370   0.339   2.371   1.006
  943WAT     H1 3371   0.287   2.288   0.989
  943WAT     H2 3372   0.416   2.376   0.942
  944WAT      O 3373   1.138   2.242   1.678
  944WAT     H1 3374   1.093   2.305   1.742
  944WAT     H2 3375   1.231   2.273   1.661
  945WAT      O 3376   1.160   2.069   1.477
  945WAT     H1 3377   1.160   2.133   1.554
  945WAT     H2 3378   1.188   2.117   1.394
  946WAT      O 3379   0.008   3.188   0.200
  946WAT     H1 3380  -0.085   3.209   0.169
  946WAT     H2 3381   0.018   3.089   0.213
  947WAT      O 3382   0.088   3.663   0.927
  947WAT     H1 3383   0.046   3.577   0.900
  947WAT     H2 3384   0.182   3.666   0.893
  948WAT      O 3385   0.504   3.430   0.910
  948WAT     H1 3386   0.570   3.504   0.919
  948WAT     H2 3387   0.548   3.351   0.868
  949WAT      O 3388   1.002   2.658   1.238
  949WAT     H1 3389   1.043   2.626   1.324
  949WAT     H2 3390   0.906   2.631   1.235
  950WAT      O 3391   0.040   2.406   1.114
  950WAT     H1 3392   0.125   2.373   1.073
  950WAT     H2 3393   0.053   2.421   1.212
  951WAT      O 3394   0.189   2.382   1.722
  951WAT     H1 3395   0.248   2.342   1.652
  951WAT     H2 3396   0.131   2.453   1.681
  952WAT      O 3397   1.369   2.812   1.660
  952WAT     H1 3398   1.408   2.901   1.680
  952WAT     H2 3399   1.379   2.792   1.563
  953WAT      O 3400   0.815   2.434   0.325
  953WAT     H1 3401   0.822   2.345   0.279
  953WAT     H2 3402   0.721   2.468   0.317
  954WAT      O 3403   1.657   2.466   1.206
  954WAT     H1 3404   1.619   2.397   1.268
  954WAT     H2 3405   1.739   2.430   1.162
  955WAT      O 3406   0.252   3.426   1.744
  955WAT     H1 3407   0.222   3.483   1.820
  955WAT     H2 3408   0.245   3.329   1.770
  956WAT      O 3409   0.671   2.326   1.269
  956WAT     H1 3410   0.637   2.237   1.239
  956WAT     H2 3411   0.697   2.380   1.189
  957WAT      O 3412   0.930   3.540   1.465
  957WAT     H1 3413   0.906   3.522   1.370
  957WAT     H2 3414   0.960   3.634   1.475
  958WAT      O 3415   0.473   2.362   0.191
  958WAT     H1 3416   0.534   2.442   0.195
  958WAT     H2 3417   0.378   2.393   0.198
  959WAT      O 3418   0.159   2.999   1.466
  959WAT     H1 3419   0.181   2.938   1.542
  959WAT     H2 3420   0.169   2.950   1.380
  960WAT      O 3421   1.347   2.921   1.234
  960WAT     H1 3422   1.371   2.858   1.160
  960WAT     H2 3423   1.257   2.961   1.216
  961WAT      O 3424   1.302   2.717   0.309
  961WAT     H1 3425   1.216   2.686   0.351
  961WAT     H2 3426   1.298   2.703   0.210
  962WAT      O 3427   1.759   3.609   1.154
  962WAT     H1 3428   1.820   3.639   1.081
  962WAT     H2 3429   1.721   3.520   1.132
  963WAT      O 3430   1.252   3.593   1.128
  963WAT     H1 3431   1.336   3.598   1.074
  963WAT     H2 3432   1.229   3.497   1.146
  964WAT      O 3433   0.083   3.120   1.022
  964WAT     H1 3434   0.078   3.119   1.122
  964WAT     H2 3435   0.000   3.079   0.984
  965WAT      O 3436   0.688   3.524   1.716
  965WAT     H1 3437   0.632   3.605   1.725
  965WAT     H2 3438   0.740   3.528   1.630
  966WAT      O 3439   0.903   1.948   0.133
  966WAT     H1 3440   0.954   1.949   0.047
  966WAT     H2 3441   0.959   1.906   0.204
  967WAT      O 3442   1.726   1.997   0.523
  967WAT     H1 3443   1.799   1.980   0.456
  967WAT     H2 3444   1.695   1.910   0.561
  968WAT      O 3445   1.388   3.435   0.477
  968WAT     H1 3446   1.455   3.447   0.403
  968WAT     H2 3447   1.348   3.524   0.500
  969WAT      O 3448   0.130   3.656   1.851
  969WAT     H1 3449   0.089   3.582   1.904
  969WAT     H2 3450   0.194   3.707   1.909
  970WAT      O 3451   1.280   2.789   0.672
  970WAT     H1 3452   1.340   2.708   0.674
  970WAT     H2 3453   1.320   2.858   0.612
  971WAT      O 3454   0.830   3.135   1.422
  971WAT     H1 3455   0.825   3.168   1.517
  971WAT     H2 3456   0.744   3.154   1.376
  972WAT      O 3457   0.672   3.478   0.154
  972WAT     H1 3458   0.681   3.488   0.055
  972WAT     H2 3459   0.632   3.389   0.175
  973WAT      O 3460   1.650   3.582   1.394
  973WAT     H1 3461   1.703   3.592   1.310
  973WAT     H2 3462   1.623   3.672   1.428
  974WAT      O 3463   1.841   2.037   0.963
  974WAT     H1 3464   1.880   1.952   0.927
  974WAT     H2 3465   1.743   2.039   0.944
  975WAT      O 3466   0.263   2.188   0.720
  975WAT     H1 3467   0.184   2.239   0.686
  975WAT     H2 3468   0.254   2.173   0.818
  976WAT      O 3469   1.194   3.474   0.031
  976WAT     H1 3470   1.200   3.381   0.068
  976WAT     H2 3471   1.135   3.474  -0.049
  977WAT      O 3472   0.822   2.864   1.372
  977WAT     H1 3473   0.862   2.863   1.280
  977WAT     H2 3474   0.832   2.956   1.412
  978WAT      O 3475   0.916   2.772   0.291
  978WAT     H1 3476   0.979   2.810   0.223
  978WAT     H2 3477   0.956   2.689   0.330
  979WAT      O 3478   1.504   3.469   0.044
  979WAT     H1 3479   1.412   3.506   0.051
  979WAT     H2 3480   1.542   3.489  -0.046
  980WAT      O 3481   0.372   3.150   1.490
  980WAT     H1 3482   0.359   3.243   1.456
  980WAT     H2 3483   0.288   3.098   1.477
  981WAT      O 3484   1.614   3.154   1.289
  981WAT     H1 3485   1.674   3.157   1.369
  981WAT     H2 3486   1.539   3.218   1.302
  982WAT      O 3487   1.039   2.960   0.696
  982WAT     H1 3488   0.969   2.913   0.750
  982WAT     H2 3489   1.098   2.892   0.653
  983WAT      O 3490   1.014   2.098   0.971
  983WAT     H1 3491   1.006   2.062   0.878
  983WAT     H2 3492   1.012   2.022   1.036
  984WAT      O 3493   0.590   3.349   0.491
  984WAT     H1 3494   0.632   3.291   0.421
  984WAT     H2 3495   0.546   3.428   0.447
  985WAT      O 3496   1.709   2.247   1.381
  985WAT     H1 3497   1.782   2.316   1.385
  985WAT     H2 3498   1.737   2.172   1.322
  986WAT      O 3499   0.255   3.210   0.290
  986WAT     H1 3500   0.159   3.211   0.263
  986WAT     H2 3501   0.267   3.263   0.374
  987WAT      O 3502   0.105   2.875   1.726
  987WAT     H1 3503   0.028   2.842   1.780
  987WAT     H2 3504   0.190   2.845   1.768
  988WAT      O 3505   0.672   2.065   1.489
  988WAT     H1 3506   0.762   2.049   1.449
  988WAT     H2 3507   0.680   2.070   1.588
  989WAT      O 3508   0.075   2.207   0.033
  989WAT     H1 3509  -0.017   2.179   0.004
  989WAT     H2 3510   0.106   2.284  -0.023
  990WAT      O 3511   1.440   2.718   1.398
  990WAT     H1 3512   1.383   2.770   1.335
  990WAT     H2 3513   1.536   2.730   1.374
  991WAT      O 3514   0.072   2.028   0.318
  991WAT     H1 3515   0.055   2.111   0.264
  991WAT     H2 3516   0.162   1.991   0.296
  992WAT      O 3517   1.183   3.197   0.119
  992WAT     H1 3518   1.084   3.186   0.121
  992WAT     H2 3519   1.217   3.212   0.212
  993WAT      O 3520   0.613   2.704   1.431
  993WAT     H1 3521   0.669   2.785   1.414
  993WAT     H2 3522   0.672   2.624   1.434
  994WAT      O 3523   1.493   3.629   0.959
  994WAT     H1 3524   1.526   3.693   0.890
  994WAT     H2 3525   1.559   3.623   1.034
  995WAT      O 3526   0.716   2.427   1.708
  995WAT     H1 3527   0.735   2.492   1.782
  995WAT     H2 3528   0.776   2.347   1.717
  996WAT      O 3529   1.450   3.082   1.633
  996WAT     H1 3530   1.441   3.072   1.732
  996WAT     H2 3531   1.546   3.075   1.607
  997WAT      O 3532   0.390   3.603   1.560
  997WAT     H1 3533   0.299   3.644   1.558
  997WAT     H2 3534   0.383   3.509   1.592
  998WAT      O 3535   1.674   2.745   1.254
  998WAT     H1 3536   1.647   2.656   1.217
  998WAT     H2 3537   1.675   2.813   1.181
  999WAT      O 3538   1.225   2.187   0.449
  999WAT     H1 3539   1.290   2.113   0.438
  999WAT     H2 3540   1.245   2.237   0.533
 1000WAT      O 3541   0.594   2.607   0.652
 1000WAT     H1 3542   0.644   2.692   0.633
 1000WAT     H2 3543   0.506   2.609   0.604
 1001WAT      O 3544   1.777   2.204   1.642
 1001WAT     H1 3545   1.760   2.235   1.548
 1001WAT     H2 3546   1.693   2.167   1.680
 1002WAT      O 3547   1.730   2.796   1.517
 1002WAT     H1 3548   1.768   2.887   1.532
 1002WAT     H2 3549   1.722   2.779   1.418
 1003WAT      O 3550   0.859   3.236   0.016
 1003WAT     H1 3551   0.813   3.251   0.104
 1003WAT     H2 3552   0.903   3.321  -0.014
 1004WAT      O 3553   0.661   3.652   0.953
 1004WAT     H1 3554   0.615   3.740   0.940
 1004WAT     H2 3555   0.760   3.664   0.946
 1005WAT      O 3556   0.859   2.818   0.861
 1005WAT     H1 3557   0.913   2.749   0.909
 1005WAT     H2 3558   0.827   2.887   0.927
 1006WAT      O 3559   1.083   2.846   0.087
 1006WAT     H1 3560   1.060   2.899   0.005
 1006WAT     H2 3561   1.164   2.790   0.068
 1007WAT      O 3562   1.861   3.431   0.851
 1007WAT     H1 3563   1.790   3.419   0.781
 1007WAT     H2 3564   1.862   3.352   0.911
 1008WAT      O 3565   0.221   3.176   1.844
 1008WAT     H1 3566   0.156   3.103   1.823
 1008WAT     H2 3567   0.225   3.190   1.942
 1009WAT      O 3568   0.079   3.102   0.653
 1009WAT     H1 3569   0.078   3.055   0.741
 1009WAT     H2 3570   0.161   3.074   0.602
 1010WAT      O 3571   0.672   3.253   1.624
 1010WAT     H1 3572   0.594   3.203   1.662
 1010WAT     H2 3573   0.669   3.348   1.655
 1011WAT      O 3574   1.824   2.054   1.227
 1011WAT     H1 3575   1.820   1.964   1.271
 1011WAT     H2 3576   1.827   2.043   1.128
 1012WAT      O 3577   0.428   2.286   0.520
 1012WAT     H1 3578   0.458   2.214   0.458
 1012WAT     H2 3579   0.389   2.246   0.603
 1013WAT      O 3580   1.705   3.349   1.104
 1013WAT     H1 3581   1.612   3.324   1.077
 1013WAT     H2 3582   1.731   3.299   1.186
 1014WAT      O 3583   0.317   2.409   1.280
 1014WAT     H1 3584   0.355   2.350   1.352
 1014WAT     H2 3585   0.357   2.383   1.192
 1015WAT      O 3586   0.812   3.448   0.687
 1015WAT     H1 3587   0.844   3.458   0.593
 1015WAT     H2 3588   0.733   3.386   0.689
 1016WAT      O 3589   1.424   2.076   1.112
 1016WAT     H1 3590   1.476   2.011   1.167
 1016WAT     H2 3591   1.375   2.139   1.173
 1017WAT      O 3592   1.001   1.896   1.154
 1017WAT     H1 3593   0.938   1.824   1.123
 1017WAT     H2 3594   1.094   1.860   1.154
 1018WAT      O 3595   0.770   3.192   0.301
 1018WAT     H1 3596   0.724   3.105   0.318
 1018WAT     H2 3597   0.861   3.189   0.342
 1019WAT      O 3598   0.618   3.429   1.284
 1019WAT     H1 3599   0.613   3.511   1.341
 1019WAT     H2 3600   0.707   3.426   1.239
 1020WAT      O 3601   1.352   1.914   0.168
 1020WAT     H1 3602   1.387   1.873   0.084
 1020WAT     H2 3603   1.262   1.876   0.188
 1021WAT      O 3604   1.300   2.315   0.691
 1021WAT     H1 3605   1.241   2.395   0.695
 1021WAT     H2 3606   1.315   2.280   0.784
 1022WAT      O 3607   1.593   2.083   0.882
 1022WAT     H1 3608   1.509   2.082   0.936
 1022WAT     H2 3609   1.595   2.166   0.826
 1023WAT      O 3610   0.039   2.939   0.300
 1023WAT     H1 3611   0.138   2.928   0.291
 1023WAT     H2 3612  -0.001   2.853   0.332
 1024WAT      O 3613   0.875   3.508   0.337
 1024WAT     H1 3614   0.798   3.473   0.283
 1024WAT     H2 3615   0.843   3.579   0.399
 1025WAT      O 3616   0.230   2.490   1.975
 1025WAT     H1 3617   0.137   2.488   2.012
 1025WAT     H2 3618   0.231   2.451   1.883
 1026WAT      O 3619   0.225   2.137   2.858
 1026WAT     H1 3620   0.260   2.120   2.950
 1026WAT     H2 3621   0.137   2.092   2.846
 1027WAT      O 3622   0.019   2.230   2.509
 1027WAT     H1 3623  -0.063   2.273   2.548
 1027WAT     H2 3624  -0.009   2.157   2.446
 1028WAT      O 3625   0.569   3.137   3.027
 1028WAT     H1 3626   0.476   3.130   2.990
 1028WAT     H2 3627   0.580   3.226   3.071
 1029WAT      O 3628   1.555   3.373   2.565
 1029WAT     H1 3629   1.498   3.357   2.646
 1029WAT     H2 3630   1.496   3.383   2.485
 1030WAT      O 3631   1.135   2.565   2.579
 1030WAT     H1 3632   1.192   2.643   2.554
 1030WAT     H2 3633   1.075   2.591   2.655
 1031WAT      O 3634   1.755   2.469   2.093
 1031WAT     H1 3635   1.743   2.456   1.994
 1031WAT     H2 3636   1.725   2.388   2.142
 1032WAT      O 3637   0.768   3.006   2.885
 1032WAT     H1 3638   0.690   3.023   2.945
 1032WAT     H2 3639   0.802   3.093   2.849
 1033WAT      O 3640   0.850   2.660   3.685
 1033WAT     H1 3641   0.846   2.736   3.750
 1033WAT     H2 3642   0.872   2.696   3.594
 1034WAT      O 3643   0.685   2.874   2.527
 1034WAT     H1 3644   0.754   2.858   2.597
 1034WAT     H2 3645   0.612   2.931   2.565
 1035WAT      O 3646   0.686   3.023   3.665
 1035WAT     H1 3647   0.746   3.102   3.679
 1035WAT     H2 3648   0.600   3.054   3.624
 1036WAT      O 3649   0.335   3.297   2.923
 1036WAT     H1 3650   0.257   3.266   2.870
 1036WAT     H2 3651   0.393   3.355   2.866
 1037WAT      O 3652   1.460   3.367   3.201
 1037WAT     H1 3653   1.484   3.461   3.227
 1037WAT     H2 3654   1.444   3.313   3.283
 1038WAT      O 3655   0.438   2.254   3.361
 1038WAT     H1 3656   0.520   2.198   3.370
 1038WAT     H2 3657   0.357   2.196   3.365
 1039WAT      O 3658   1.603   2.309   2.599
 1039WAT     H1 3659   1.529   2.355   2.549
 1039WAT     H2 3660   1.654   2.377   2.652
 1040WAT      O 3661   0.231   3.575   2.345
 1040WAT     H1 3662   0.265   3.652   2.399
 1040WAT     H2 3663   0.275   3.575   2.255
 1041WAT      O 3664   1.127   3.203   3.552
 1041WAT     H1 3665   1.174   3.203   3.640
 1041WAT     H2 3666   1.079   3.116   3.541
 1042WAT      O 3667   0.230   3.296   2.400
 1042WAT     H1 3668   0.204   3.392   2.400
 1042WAT     H2 3669   0.159   3.242   2.445
 1043WAT      O 3670   0.240   2.953   2.748
 1043WAT     H1 3671   0.254   2.869   2.800
 1043WAT     H2 3672   0.185   3.017   2.803
 1044WAT      O 3673   0.620   3.648   3.301
 1044WAT     H1 3674   0.528   3.631   3.336
 1044WAT     H2 3675   0.648   3.740   3.327
 1045WAT      O 3676   0.606   2.826   1.985
 1045WAT     H1 3677   0.613   2.910   1.931
 1045WAT     H2 3678   0.652   2.839   2.073
 1046WAT      O 3679   1.594   1.976   3.342
 1046WAT     H1 3680   1.576   2.043   3.270
 1046WAT     H2 3681   1.591   2.022   3.431
 1047WAT      O 3682   0.122   2.505   2.425
 1047WAT     H1 3683   0.077   2.417   2.442
 1047WAT     H2 3684   0.121   2.559   2.509
 1048WAT      O 3685   1.842   3.629   2.221
 1048WAT     H1 3686   1.896   3.600   2.301
 1048WAT     H2 3687   1.872   3.719   2.192
 1049WAT      O 3688   0.027   3.458   1.979
 1049WAT     H1 3689   0.008   3.362   2.000
 1049WAT     H2 3690  -0.006   3.516   2.054
 1050WAT      O 3691   1.689   2.784   2.474
 1050WAT     H1 3692   1.784   2.755   2.482
 1050WAT     H2 3693   1.681   2.849   2.399
 1051WAT      O 3694   1.641   2.970   2.294
 1051WAT     H1 3695   1.727   2.972   2.242
 1051WAT     H2 3696   1.655   3.017   2.382
 1052WAT      O 3697   0.113   2.599   3.459
 1052WAT     H1 3698   0.201   2.586   3.504
 1052WAT     H2 3699   0.100   2.696   3.437
 1053WAT      O 3700   0.613   3.227   2.588
 1053WAT     H1 3701   0.564   3.140   2.597
 1053WAT     H2 3702   0.590   3.270   2.501
 1054WAT      O 3703   1.293   3.090   3.285
 1054WAT     H1 3704   1.330   3.017   3.227
 1054WAT     H2 3705   1.345   3.095   3.370
 1055WAT      O 3706   0.809   1.866   2.364
 1055WAT     H1 3707   0.849   1.957   2.355
 1055WAT     H2 3708   0.709   1.874   2.370
 1056WAT      O 3709   0.197   2.838   3.126
 1056WAT     H1 3710   0.286   2.793   3.112
 1056WAT     H2 3711   0.124   2.773   3.107
 1057WAT      O 3712   1.525   2.861   2.052
 1057WAT     H1 3713   1.462   2.785   2.065
 1057WAT     H2 3714   1.573   2.879   2.138
 1058WAT      O 3715   1.187   3.654   3.478
 1058WAT     H1 3716   1.211   3.714   3.402
 1058WAT     H2 3717   1.194   3.559   3.448
 1059WAT      O 3718   0.317   2.113   3.663
 1059WAT     H1 3719   0.388   2.184   3.669
 1059WAT     H2 3720   0.229   2.152   3.691
 1060WAT      O 3721   1.466   3.279   2.815
 1060WAT     H1 3722   1.407   3.285   2.895
 1060WAT     H2 3723   1.451   3.191   2.769
 1061WAT      O 3724   1.667   3.576   2.434
 1061WAT     H1 3725   1.626   3.553   2.346
 1061WAT     H2 3726   1.649   3.502   2.499
 1062WAT      O 3727   0.598   2.591   2.132
 1062WAT     H1 3728   0.622   2.660   2.064
 1062WAT     H2 3729   0.520   2.624   2.186
 1063WAT      O 3730   1.281   2.207   2.806
 1063WAT     H1 3731   1.195   2.157   2.793
 1063WAT     H2 3732   1.343   2.153   2.862
 1064WAT      O 3733   1.576   3.524   2.169
 1064WAT     H1 3734   1.665   3.570   2.172
 1064WAT     H2 3735   1.555   3.500   2.074
 1065WAT      O 3736   0.807   2.467   3.327
 1065WAT     H1 3737   0.760   2.464   3.416
 1065WAT     H2 3738   0.756   2.412   3.261
 1066WAT      O 3739   1.394   2.331   3.536
 1066WAT     H1 3740   1.374   2.374   3.624
 1066WAT     H2 3741   1.472   2.269   3.545
 1067WAT      O 3742   0.973   2.752   3.434
 1067WAT     H1 3743   1.019   2.668   3.405
 1067WAT     H2 3744   0.917   2.786   3.359
 1068WAT      O 3745   0.991   2.272   3.104
 1068WAT     H1 3746   0.914   2.306   3.158
 1068WAT     H2 3747   0.957   2.221   3.025
 1069WAT      O 3748   1.041   2.563   2.291
 1069WAT     H1 3749   1.067   2.559   2.387
 1069WAT     H2 3750   0.956   2.512   2.277
 1070WAT      O 3751   0.076   2.673   2.651
 1070WAT     H1 3752   0.175   2.661   2.660
 1070WAT     H2 3753   0.052   2.768   2.672
 1071WAT      O 3754   0.130   3.683   3.433
 1071WAT     H1 3755   0.120   3.668   3.532
 1071WAT     H2 3756   0.044   3.719   3.397
 1072WAT      O 3757   0.865   2.210   2.057
 1072WAT     H1 3758   0.924   2.273   2.008
 1072WAT     H2 3759   0.884   2.116   2.028
 1073WAT      O 3760   1.719   2.447   3.693
 1073WAT     H1 3761   1.693   2.536   3.657
 1073WAT     H2 3762   1.717   2.379   3.620
 1074WAT      O 3763   1.362   3.006   2.407
 1074WAT     H1 3764   1.445   2.977   2.359
 1074WAT     H2 3765   1.313   3.073   2.351
 1075WAT      O 3766   0.550   2.058   2.747
 1075WAT     H1 3767   0.545   2.053   2.847
 1075WAT     H2 3768   0.552   2.154   2.718
 1076WAT      O 3769   1.008   3.318   2.339
 1076WAT     H1 3770   0.962   3.390   2.287
 1076WAT     H2 3771   1.004   3.338   2.437
 1077WAT      O 3772   0.351   3.663   2.715
 1077WAT     H1 3773   0.401   3.577   2.721
 1077WAT     H2 3774   0.416   3.740   2.712
 1078WAT      O 3775   1.795   2.928   2.735
 1078WAT     H1 3776   1.733   2.913   2.659
 1078WAT     H2 3777   1.743   2.939   2.820
 1079WAT      O 3778   1.227   3.412   3.368
 1079WAT     H1 3779   1.233   3.335   3.432
 1079WAT     H2 3780   1.175   3.386   3.288
 1080WAT      O 3781   0.321   2.805   2.104
 1080WAT     H1 3782   0.403   2.844   2.062
 1080WAT     H2 3783   0.294   2.723   2.055
 1081WAT      O 3784   1.458   2.597   2.590
 1081WAT     H1 3785   1.453   2.532   2.665
 1081WAT     H2 3786   1.538   2.656   2.603
 1082WAT      O 3787   0.461   3.128   3.589
 1082WAT     H1 3788   0.411   3.129   3.503
 1082WAT     H2 3789   0.398   3.110   3.665
 1083WAT      O 3790   1.111   3.638   2.099
 1083WAT     H1 3791   1.051   3.576   2.149
 1083WAT     H2 3792   1.142   3.594   2.014
 1084WAT      O 3793   0.202   2.147   3.360
 1084WAT     H1 3794   0.122   2.207   3.347
 1084WAT     H2 3795   0.192   2.098   3.446
 1085WAT      O 3796   1.632   3.239   1.943
 1085WAT     H1 3797   1.600   3.333   1.933
 1085WAT     H2 3798   1.556   3.176   1.931
 1086WAT      O 3799   0.464   3.605   2.185
 1086WAT     H1 3800   0.497   3.644   2.271
 1086WAT     H2 3801   0.540   3.598   2.120
 1087WAT      O 3802   1.400   1.969   2.288
 1087WAT     H1 3803   1.376   1.932   2.198
 1087WAT     H2 3804   1.499   1.985   2.292
 1088WAT      O 3805   0.249   3.647   3.103
 1088WAT     H1 3806   0.306   3.582   3.153
 1088WAT     H2 3807   0.233   3.614   3.010
 1089WAT      O 3808   0.940   3.560   2.766
 1089WAT     H1 3809   1.020   3.503   2.787
 1089WAT     H2 3810   0.891   3.520   2.689
 1090WAT      O 3811   0.382   2.562   2.342
 1090WAT     H1 3812   0.427   2.472   2.339
 1090WAT     H2 3813   0.288   2.551   2.375
 1091WAT      O 3814   1.547   2.084   3.591
 1091WAT     H1 3815   1.542   2.121   3.683
 1091WAT     H2 3816   1.475   2.015   3.579
 1092WAT      O 3817   0.614   1.984   1.979
 1092WAT     H1 3818   0.712   1.962   1.986
 1092WAT     H2 3819   0.583   1.967   1.886
 1093WAT      O 3820   0.781   2.126   3.611
 1093WAT     H1 3821   0.848   2.065   3.654
 1093WAT     H2 3822   0.708   2.145   3.676
 1094WAT      O 3823   0.888   3.376   3.057
 1094WAT     H1 3824   0.865   3.351   2.963
 1094WAT     H2 3825   0.949   3.307   3.096
 1095WAT      O 3826   1.351   2.452   3.295
 1095WAT     H1 3827   1.379   2.409   3.380
 1095WAT     H2 3828   1.376   2.548   3.296
 1096WAT      O 3829   0.803   3.264   2.786
 1096WAT     H1 3830   0.893   3.278   2.744
 1096WAT     H2 3831   0.732   3.266   2.715
 1097WAT      O 3832   0.922   2.365   2.761
 1097WAT     H1 3833   0.897   2.356   2.665
 1097WAT     H2 3834   0.970   2.283   2.792
 1098WAT      O 3835   0.539   1.926   2.374
 1098WAT     H1 3836   0.458   1.927   2.432
 1098WAT     H2 3837   0.542   2.009   2.319
 1099WAT      O 3838   1.434   3.050   1.903
 1099WAT     H1 3839   1.466   2.974   1.960
 1099WAT     H2 3840   1.342   3.077   1.933
 1100WAT      O 3841   0.297   1.897   2.033
 1100WAT     H1 3842   0.346   1.981   2.012
 1100WAT     H2 3843   0.359   1.832   2.078
 1101WAT      O 3844   0.935   2.098   2.342
 1101WAT     H1 3845   0.887   2.139   2.264
 1101WAT     H2 3846   1.034   2.096   2.323
 1102WAT      O 3847   1.076   2.545   3.326
 1102WAT     H1 3848   0.996   2.484   3.329
 1102WAT     H2 3849   1.157   2.492   3.302
 1103WAT      O 3850   1.227   3.432   2.655
 1103WAT     H1 3851   1.248   3.506   2.590
 1103WAT     H2 3852   1.295   3.432   2.728
 1104WAT      O 3853   0.459   3.014   2.603
 1104WAT     H1 3854   0.388   2.987   2.668
 1104WAT     H2 3855   0.433   2.986   2.510
 1105WAT      O 3856   1.271   3.659   2.453
 1105WAT     H1 3857   1.315   3.723   2.389
 1105WAT     H2 3858   1.221   3.711   2.523
 1106WAT      O 3859   1.032   2.411   1.878
 1106WAT     H1 3860   0.991   2.493   1.839
 1106WAT     H2 3861   1.096   2.437   1.951
 1107WAT      O 3862   0.078   2.418   3.248
 1107WAT     H1 3863   0.170   2.417   3.207
 1107WAT     H2 3864   0.072   2.492   3.315
 1108WAT      O 3865   0.561   2.084   3.009
 1108WAT     H1 3866   0.599   2.000   3.046
 1108WAT     H2 3867   0.473   2.103   3.053
 1109WAT      O 3868   0.866   2.316   2.504
 1109WAT     H1 3869   0.834   2.388   2.442
 1109WAT     H2 3870   0.890   2.235   2.451
 1110WAT      O 3871   1.017   1.901   2.615
 1110WAT     H1 3872   0.945   1.906   2.546
 1110WAT     H2 3873   0.993   1.832   2.684
 1111WAT      O 3874   1.429   3.035   2.729
 1111WAT     H1 3875   1.374   2.951   2.722
 1111WAT     H2 3876   1.455   3.064   2.637
 1112WAT      O 3877   1.466   2.452   2.854
 1112WAT     H1 3878   1.436   2.357   2.861
 1112WAT     H2 3879   1.539   2.468   2.920
 1113WAT      O 3880   1.857   2.695   2.239
 1113WAT     H1 3881   1.899   2.631   2.303
 1113WAT     H2 3882   1.819   2.644   2.161
 1114WAT      O 3883   0.488   3.247   2.036
 1114WAT     H1 3884   0.401   3.232   2.083
 1114WAT     H2 3885   0.471   3.273   1.941
 1115WAT      O 3886   1.664   3.142   2.519
 1115WAT     H1 3887   1.763   3.150   2.533
 1115WAT     H2 3888   1.619   3.226   2.550
 1116WAT      O 3889   1.390   2.437   1.940
 1116WAT     H1 3890   1.336   2.416   2.021
 1116WAT     H2 3891   1.481   2.396   1.949
 1117WAT      O 3892   0.527   2.118   2.190
 1117WAT     H1 3893   0.554   2.059   2.115
 1117WAT     H2 3894   0.527   2.213   2.159
 1118WAT      O 3895   1.754   3.085   3.450
 1118WAT     H1 3896   1.845   3.046   3.437
 1118WAT     H2 3897   1.762   3.181   3.474
 1119WAT      O 3898   1.064   3.209   3.202
 1119WAT     H1 3899   0.984   3.186   3.257
 1119WAT     H2 3900   1.147   3.183   3.251
 1120WAT      O 3901   1.592   3.491   3.487
 1120WAT     H1 3902   1.619   3.525   3.397
 1120WAT     H2 3903   1.671   3.453   3.533
 1121WAT      O 3904   1.111   3.057   2.962
 1121WAT     H1 3905   1.071   3.101   3.043
 1121WAT     H2 3906   1.070   3.094   2.879
 1122WAT      O 3907   1.638   2.961   2.941
 1122WAT     H1 3908   1.643   3.042   3.000
 1122WAT     H2 3909   1.552   2.963   2.890
 1123WAT      O 3910   0.915   1.951   3.264
 1123WAT     H1 3911   0.940   1.931   3.169
 1123WAT     H2 3912   0.987   2.007   3.306
 1124WAT      O 3913   0.980   2.978   3.581
 1124WAT     H1 3914   0.881   2.984   3.591
 1124WAT     H2 3915   1.003   2.898   3.525
 1125WAT      O 3916   0.705   2.912   2.230
 1125WAT     H1 3917   0.691   2.919   2.329
 1125WAT     H2 3918   0.789   2.861   2.212
 1126WAT      O 3919   0.410   2.675   3.113
 1126WAT     H1 3920   0.496   2.687   3.163
 1126WAT     H2 3921   0.368   2.588   3.140
 1127WAT      O 3922   1.274   2.248   3.124
 1127WAT     H1 3923   1.295   2.322   3.188
 1127WAT     H2 3924   1.185   2.265   3.081
 1128WAT      O 3925   0.064   3.426   3.193
 1128WAT     H1 3926   0.018   3.508   3.159
 1128WAT     H2 3927   0.162   3.445   3.202
 1129WAT      O 3928   0.367   2.962   2.363
 1129WAT     H1 3929   0.360   3.045   2.307
 1129WAT     H2 3930   0.371   2.882   2.303
 1130WAT      O 3931   0.566   2.399   2.727
 1130WAT     H1 3932   0.578   2.465   2.653
 1130WAT     H2 3933   0.612   2.433   2.810
 1131WAT      O 3934   1.252   3.210   2.250
 1131WAT     H1 3935   1.302   3.287   2.290
 1131WAT     H2 3936   1.157   3.212   2.282
 1132WAT      O 3937   1.272   3.307   3.004
 1132WAT     H1 3938   1.319   3.320   3.091
 1132WAT     H2 3939   1.206   3.233   3.013
 1133WAT      O 3940   1.582   2.501   2.334
 1133WAT     H1 3941   1.551   2.562   2.407
 1133WAT     H2 3942   1.632   2.553   2.265
 1134WAT      O 3943   0.354   3.372   3.191
 1134WAT     H1 3944   0.333   3.328   3.104
 1134WAT     H2 3945   0.451   3.398   3.194
 1135WAT      O 3946   0.402   2.613   3.460
 1135WAT     H1 3947   0.470   2.668   3.413
 1135WAT     H2 3948   0.442   2.525   3.487
 1136WAT      O 3949   1.587   2.641   3.532
 1136WAT     H1 3950   1.495   2.679   3.527
 1136WAT     H2 3951   1.647   2.688   3.467
 1137WAT      O 3952   1.013   1.967   3.632
 1137WAT     H1 3953   1.019   2.052   3.580
 1137WAT     H2 3954   1.045   1.891   3.575
 1138WAT      O 3955   0.504   1.912   3.602
 1138WAT     H1 3956   0.462   1.855   3.532
 1138WAT     H2 3957   0.438   1.981   3.634
 1139WAT      O 3958   0.573   2.732   2.891
 1139WAT     H1 3959   0.617   2.821   2.882
 1139WAT     H2 3960   0.510   2.732   2.968
 1140WAT      O 3961   1.360   2.724   2.907
 1140WAT     H1 3962   1.285   2.724   2.841
 1140WAT     H2 3963   1.397   2.632   2.916
 1141WAT      O 3964   1.209   2.387   2.137
 1141WAT     H1 3965   1.222   2.303   2.191
 1141WAT     H2 3966   1.180   2.461   2.197
 1142WAT      O 3967   0.307   2.075   3.093
 1142WAT     H1 3968   0.284   2.112   3.183
 1142WAT     H2 3969   0.277   1.980   3.087
 1143WAT      O 3970   0.037   3.172   3.144
 1143WAT     H1 3971   0.090   3.123   3.212
 1143WAT     H2 3972   0.059   3.270   3.149
 1144WAT      O 3973   0.732   2.496   2.926
 1144WAT     H1 3974   0.791   2.470   2.850
 1144WAT     H2 3975   0.704   2.592   2.915
 1145WAT      O 3976   1.728   2.797   3.716
 1145WAT     H1 3977   1.682   2.790   3.627
 1145WAT     H2 3978   1.666   2.841   3.782
 1146WAT      O 3979   0.307   1.925   2.480
 1146WAT     H1 3980   0.296   2.019   2.513
 1146WAT     H2 3981   0.302   1.862   2.557
 1147WAT      O 3982   1.622   2.229   2.236
 1147WAT     H1 3983   1.624   2.153   2.300
 1147WAT     H2 3984   1.574   2.306   2.276
 1148WAT      O 3985   1.023   2.628   2.828
 1148WAT     H1 3986   1.038   2.649   2.924
 1148WAT     H2 3987   0.993   2.533   2.819
 1149WAT      O 3988   0.980   3.435   3.562
 1149WAT     H1 3989   0.960   3.479   3.474
 1149WAT     H2 3990   1.019   3.344   3.546
 1150WAT      O 3991   0.350   2.760   3.666
 1150WAT     H1 3992   0.426   2.804   3.714
 1150WAT     H2 3993   0.385   2.713   3.584
 1151WAT      O 3994   1.540   2.136   1.987
 1151WAT     H1 3995   1.479   2.061   2.010
 1151WAT     H2 3996   1.562   2.188   2.070
 1152WAT      O 3997   1.303   2.700   1.904
 1152WAT     H1 3998   1.337   2.607   1.919
 1152WAT     H2 3999   1.321   2.727   1.809
 1153WAT      O 4000   1.068   3.195   2.711
 1153WAT     H1 4001   1.075   3.111   2.656
 1153WAT     H2 4002   1.130   3.264   2.675
 1154WAT      O 4003   0.319   2.672   2.811
 1154WAT     H1 4004   0.412   2.708   2.816
 1154WAT     H2 4005   0.313   2.587   2.863
 1155WAT      O 4006   0.339   2.371   2.868
 1155WAT     H1 4007   0.287   2.288   2.851
 1155WAT     H2 4008   0.416   2.376   2.804
 1156WAT      O 4009   1.138   2.242   3.540
 1156WAT     H1 4010   1.093   2.305   3.604
 1156WAT     H2 4011   1.231   2.273   3.523
 1157WAT      O 4012   1.160   2.069   3.339
 1157WAT     H1 4013   1.160   2.133   3.416
 1157WAT     H2 4014   1.188   2.117   3.256
 1158WAT      O 4015   0.008   3.188   2.062
 1158WAT     H1 4016  -0.085   3.209   2.031
 1158WAT     H2 4017   0.018   3.089   2.075
 1159WAT      O 4018   0.088   3.663   2.789
 1159WAT     H1 4019   0.046   3.577   2.762
 1159WAT     H2 4020   0.182   3.666   2.755
 1160WAT      O 4021   0.504   3.430   2.772
 1160WAT     H1 4022   0.570   3.504   2.781
 1160WAT     H2 4023   0.548   3.351   2.730
 1161WAT      O 4024   1.002   2.658   3.100
 1161WAT     H1 4025   1.043   2.626   3.186
 1161WAT     H2 4026   0.906   2.631   3.097
 1162WAT      O 4027   0.040   2.406   2.976
 1162WAT     H1 4028   0.125   2.373   2.935
 1162WAT     H2 4029   0.053   2.421   3.074
 1163WAT      O 4030   0.189   2.382   3.584
 1163WAT     H1 4031   0.248   2.342   3.514
 1163WAT     H2 4032   0.131   2.453   3.543
 1164WAT      O 4033   1.369   2.812   3.522
 1164WAT     H1 4034   1.408   2.901   3.542
 1164WAT     H2 4035   1.379   2.792   3.425
 1165WAT      O 4036   0.815   2.434   2.187
 1165WAT     H1 4037   0.822   2.345   2.141
 1165WAT     H2 4038   0.721   2.468   2.179
 1166WAT      O 4039   1.657   2.466   3.068
 1166WAT     H1 4040   1.619   2.397   3.130
 1166WAT     H2 4041   1.739   2.430   3.024
 1167WAT      O 4042   0.252   3.426   3.606
 1167WAT     H1 4043   0.222   3.483   3.682
 1167WAT     H2 4044   0.245   3.329   3.632
 1168WAT      O 4045   0.671   2.326   3.131
 1168WAT     H1 4046   0.637   2.237   3.101
 1168WAT     H2 4047   0.697   2.380   3.051
 1169WAT      O 4048   0.930   3.540   3.327
 1169WAT     H1 4049   0.906   3.522   3.232
 1169WAT     H2 4050   0.960   3.634   3.337
 1170WAT      O 4051   0.473   2.362   2.053
 1170WAT     H1 4052   0.534   2.442   2.057
 1170WAT     H2 4053   0.378   2.393   2.060
 1171WAT      O 4054   0.159   2.999   3.328
 1171WAT     H1 4055   0.181   2.938   3.404
 1171WAT     H2 4056   0.169   2.950   3.242
 1172WAT      O 4057   1.347   2.921   3.096
 1172WAT     H1 4058   1.371   2.858   3.022
 1172WAT     H2 4059   1.257   2.961   3.078
 1173WAT      O 4060   1.302   2.717   2.171
 1173WAT     H1 4061   1.216   2.686   2.213
 1173WAT     H2 4062   1.298   2.703   2.072
 1174WAT      O 4063   1.759   3.609   3.016
 1174WAT     H1 4064   1.820   3.639   2.943
 1174WAT     H2 4065   1.721   3.520   2.994
 1175WAT      O 4066   1.252   3.593   2.990
 1175WAT     H1 4067   1.336   3.598   2.936
 1175WAT     H2 4068   1.229   3.497   3.008
 1176WAT      O 4069   0.083   3.120   2.884
 1176WAT     H1 4070   0.078   3.119   2.984
 1176WAT     H2 4071   0.000   3.079   2.846
 1177WAT      O 4072   0.688   3.524   3.578
 1177WAT     H1 4073   0.632   3.605   3.587
 1177WAT     H2 4074   0.740   3.528   3.492
 1178WAT      O 4075   1.726   1.997   2.385
 1178WAT     H1 4076   1.799   1.980   2.318
 1178WAT     H2 4077   1.695   1.910   2.423
 1179WAT      O 4078   1.388   3.435   2.339
 1179WAT     H1 4079   1.455   3.447   2.265
 1179WAT     H2 4080   1.348   3.524   2.362
 1180WAT      O 4081   0.130   3.656   3.713
 1180WAT     H1 4082   0.089   3.582   3.766
 1180WAT     H2 4083   0.194   3.707   3.771
 1181WAT      O 4084   1.280   2.789   2.534
 1181WAT     H1 4085   1.340   2.708   2.536
 1181WAT     H2 4086   1.320   2.858   2.474
 1182WAT      O 4087   0.830   3.135   3.284
 1182WAT     H1 4088   0.825   3.168   3.379
 1182WAT     H2 4089   0.744   3.154   3.238
 1183WAT      O 4090   0.672   3.478   2.016
 1183WAT     H1 4091   0.681   3.488   1.917
 1183WAT     H2 4092   0.632   3.389   2.037
 1184WAT      O 4093   1.650   3.582   3.256
 1184WAT     H1 4094   1.703   3.592   3.172
 1184WAT     H2 4095   1.623   3.672   3.290
 1185WAT      O 4096   1.841   2.037   2.825
 1185WAT     H1 4097   1.880   1.952   2.789
 1185WAT     H2 4098   1.743   2.039   2.806
 1186WAT      O 4099   0.263   2.188   2.582
 1186WAT     H1 4100   0.184   2.239   2.548
 1186WAT     H2 4101   0.254   2.173   2.680
 1187WAT      O 4102   1.194   3.474   1.893
 1187WAT     H1 4103   1.200   3.381   1.930
 1187WAT     H2 4104   1.135   3.474   1.813
 1188WAT      O 4105   0.822   2.864   3.234
 1188WAT     H1 4106   0.862   2.863   3.142
 1188WAT     H2 4107   0.832   2.956   3.274
 1189WAT      O 4108   0.916   2.772   2.153
 1189WAT     H1 4109   0.979   2.810   2.085
 1189WAT     H2 4110   0.956   2.689   2.192
 1190WAT      O 4111   1.504   3.469   1.906
 1190WAT     H1 4112   1.412   3.506   1.913
 1190WAT     H2 4113   1.542   3.489   1.816
 1191WAT      O 4114   0.372   3.150   3.352
 1191WAT     H1 4115   0.359   3.243   3.318
 1191WAT     H2 4116   0.288   3.098   3.339
 1192WAT      O 4117   1.614   3.154   3.151
 1192WAT     H1 4118   1.674   3.157   3.231
 1192WAT     H2 4119   1.539   3.218   3.164
 1193WAT      O 4120   1.039   2.960   2.558
 1193WAT     H1 4121   0.969   2.913   2.612
 1193WAT     H2 4122   1.098   2.892   2.515
 1194WAT      O 4123   1.014   2.098   2.833
 1194WAT     H1 4124   1.006   2.062   2.740
 1194WAT     H2 4125   1.012   2.022   2.898
 1195WAT      O 4126   0.590   3.349   2.353
 1195WAT     H1 4127   0.632   3.291   2.283
 1195WAT     H2 4128   0.546   3.428   2.309
 1196WAT      O 4129   1.709   2.247   3.243
 1196WAT     H1 4130   1.782   2.316   3.247
 1196WAT     H2 4131   1.737   2.172   3.184
 1197WAT      O 4132   0.255   3.210   2.152
 1197WAT     H1 4133   0.159   3.211   2.125
 1197WAT     H2 4134   0.267   3.263   2.236
 1198WAT      O 4135   0.105   2.875   3.588
 1198WAT     H1 4136   0.028   2.842   3.642
 1198WAT     H2 4137   0.190   2.845   3.630
 1199WAT      O 4138   0.672   2.065   3.351
 1199WAT     H1 4139   0.762   2.049   3.311
 1199WAT     H2 4140   0.680   2.070   3.450
 1200WAT      O 4141   0.075   2.207   1.895
 1200WAT     H1 4142  -0.017   2.179   1.866
 1200WAT     H2 4143   0.106   2.284   1.839
 1201WAT      O 4144   1.440   2.718   3.260
 1201WAT     H1 4145   1.383   2.770   3.197
 1201WAT     H2 4146   1.536   2.730   3.236
 1202WAT      O 4147   0.072   2.028   2.180
 1202WAT     H1 4148   0.055   2.111   2.126
 1202WAT     H2 4149   0.162   1.991   2.158
 1203WAT      O 4150   1.183   3.197   1.981
 1203WAT     H1 4151   1.084   3.186   1.983
 1203WAT     H2 4152   1.217   3.212   2.074
 1204WAT      O 4153   0.613   2.704   3.293
 1204WAT     H1 4154   0.669   2.785   3.276
 1204WAT     H2 4155   0.672   2.624   3.296
 1205WAT      O 4156   1.493   3.629   2.821
 1205WAT     H1 4157   1.526   3.693   2.752
 1205WAT     H2 4158   1.559   3.623   2.896
 1206WAT      O 4159   0.716   2.427   3.570
 1206WAT     H1 4160   0.735   2.492   3.644
 1206WAT     H2 4161   0.776   2.347   3.579
 1207WAT      O 4162   1.450   3.082   3.495
 1207WAT     H1 4163   1.441   3.072   3.594
 1207WAT     H2 4164   1.546   3.075   3.469
 1208WAT      O 4165   0.390   3.603   3.422
 1208WAT     H1 4166   0.299   3.644   3.420
 1208WAT     H2 4167   0.383   3.509   3.454
 1209WAT      O 4168   1.674   2.745   3.116
 1209WAT     H1 4169   1.647   2.656   3.079
 1209WAT     H2 4170   1.675   2.813   3.043
 1210WAT      O 4171   1.225   2.187   2.311
 1210WAT     H1 4172   1.290   2.113   2.300
 1210WAT     H2 4173   1.245   2.237   2.395
 1211WAT      O 4174   0.594   2.607   2.514
 1211WAT     H1 4175   0.644   2.692   2.495
 1211WAT     H2 4176   0.506   2.609   2.466
 1212WAT      O 4177   1.777   2.204   3.504
 1212WAT     H1 4178   1.760   2.235   3.410
 1212WAT     H2 4179   1.693   2.167   3.542
 1213WAT      O 4180   1.730   2.796   3.379
 1213WAT     H1 4181   1.768   2.887   3.394
 1213WAT     H2 4182   1.722   2.779   3.280
 1214WAT      O 4183   0.859   3.236   1.878
 1214WAT     H1 4184   0.813   3.251   1.966
 1214WAT     H2 4185   0.903   3.321   1.848
 1215WAT      O 4186   0.661   3.652   2.815
 1215WAT     H1 4187   0.615   3.740   2.802
 1215WAT     H2 4188   0.760   3.664   2.808
 1216WAT      O 4189   0.859   2.818   2.723
 1216WAT     H1 4190   0.913   2.749   2.771
 1216WAT     H2 4191   0.827   2.887   2.789
 1217WAT      O 4192   1.083   2.846   1.949
 1217WAT     H1 4193   1.060   2.899   1.867
 1217WAT     H2 4194   1.164   2.790   1.930
 1218WAT      O 4195   1.861   3.431   2.713
 1218WAT     H1 4196   1.790   3.419   2.643
 1218WAT     H2 4197   1.862   3.352   2.773
 1219WAT      O 4198   0.221   3.176   3.706
 1219WAT     H1 4199   0.156   3.103   3.685
 1219WAT     H2 4200   0.225   3.190   3.804
 1220WAT      O 4201   0.079   3.102   2.515
 1220WAT     H1 4202   0.078   3.055   2.603
 1220WAT     H2 4203   0.161   3.074   2.464
 1221WAT      O 4204   0.672   3.253   3.486
 1221WAT     H1 4205   0.594   3.203   3.524
 1221WAT     H2 4206   0.669   3.348   3.517
 1222WAT      O 4207   1.824   2.054   3.089
 1222WAT     H1 4208   1.820   1.964   3.133
 1222WAT     H2 4209   1.827   2.043   2.990
 1223WAT      O 4210   0.428   2.286   2.382
 1223WAT     H1 4211   0.458   2.214   2.320
 1223WAT     H2 4212   0.389   2.246   2.465
 1224WAT      O 4213   1.705   3.349   2.966
 1224WAT     H1 4214   1.612   3.324   2.939
 1224WAT     H2 4215   1.731   3.299   3.048
 1225WAT      O 4216   0.317   2.409   3.142
 1225WAT     H1 4217   0.355   2.350   3.214
 1225WAT     H2 4218   0.357   2.383   3.054
 1226WAT      O 4219   0.812   3.448   2.549
 1226WAT     H1 4220   0.844   3.458   2.455
 1226WAT     H2 4221   0.733   3.386   2.551
 1227WAT      O 4222   1.424   2.076   2.974
 1227WAT     H1 4223   1.476   2.011   3.029
 1227WAT     H2 4224   1.375   2.139   3.035
 1228WAT      O 4225   1.001   1.896   3.016
 1228WAT     H1 4226   0.938   1.824   2.985
 1228WAT     H2 4227   1.094   1.860   3.016
 1229WAT      O 4228   0.770   3.192   2.163
 1229WAT     H1 4229   0.724   3.105   2.180
 1229WAT     H2 4230   0.861   3.189   2.204
 1230WAT      O 4231   0.618   3.429   3.146
 1230WAT     H1 4232   0.613   3.511   3.203
 1230WAT     H2 4233   0.707   3.426   3.101
 1231WAT      O 4234   1.352   1.914   2.030
 1231WAT     H1 4235   1.387   1.873   1.946
 1231WAT     H2 4236   1.262   1.876   2.050
 1232WAT      O 4237   1.300   2.315   2.553
 1232WAT     H1 4238   1.241   2.395   2.557
 1232WAT     H2 4239   1.315   2.280   2.646
 1233WAT      O 4240   1.593   2.083   2.744
 1233WAT     H1 4241   1.509   2.082   2.798
 1233WAT     H2 4242   1.595   2.166   2.688
 1234WAT      O 4243   0.039   2.939   2.162
 1234WAT     H1 4244   0.138   2.928   2.153
 1234WAT     H2 4245  -0.001   2.853   2.194
 1235WAT      O 4246   0.875   3.508   2.199
 1235WAT     H1 4247   0.798   3.473   2.145
 1235WAT     H2 4248   0.843   3.579   2.261
 1236WAT      O 4249   0.230   2.490   3.837
 1236WAT     H1 4250   0.137   2.488   3.874
 1236WAT     H2 4251   0.231   2.451   3.745
 1237WAT      O 4252   0.225   2.137   4.720
 1237WAT     H1 4253   0.260   2.120   4.812
 1237WAT     H2 4254   0.137   2.092   4.708
 1238WAT      O 4255   0.019   2.230   4.371
 1238WAT     H1 4256  -0.063   2.273   4.410
 1238WAT     H2 4257  -0.009   2.157   4.308
 1239WAT      O 4258   0.569   3.137   4.889
 1239WAT     H1 4259   0.476   3.130   4.852
 1239WAT     H2 4260   0.580   3.226   4.933
 1240WAT      O 4261   1.555   3.373   4.427
 1240WAT     H1 4262   1.498   3.357   4.508
 1240WAT     H2 4263   1.496   3.383   4.347
 1241WAT      O 4264   1.135   2.565   4.441
 1241WAT     H1 4265   1.192   2.643   4.416
 1241WAT     H2 4266   1.075   2.591   4.517
 1242WAT      O 4267   1.755   2.469   3.955
 1242WAT     H1 4268   1.743   2.456   3.856
 1242WAT     H2 4269   1.725   2.388   4.004
 1243WAT      O 4270   0.768   3.006   4.747
 1243WAT     H1 4271   0.690   3.023   4.807
 1243WAT     H2 4272   0.802   3.093   4.711
 1244WAT      O 4273   0.850   2.660   5.547
 1244WAT     H1 4274   0.846   2.736   5.612
 1244WAT     H2 4275   0.872   2.696   5.456
 1245WAT      O 4276   0.685   2.874   4.389
 1245WAT     H1 4277   0.754   2.858   4.459
 1245WAT     H2 4278   0.612   2.931   4.427
 1246WAT      O 4279   0.686   3.023   5.527
 1246WAT     H1 4280   0.746   3.102   5.541
 1246WAT     H2 4281   0.600   3.054   5.486
 1247WAT      O 4282   0.335   3.297   4.785
 1247WAT     H1 4283   0.257   3.266   4.732
 1247WAT     H2 4284   0.393   3.355   4.728
 1248WAT      O 4285   1.460   3.367   5.063
 1248WAT     H1 4286   1.484   3.461   5.089
 1248WAT     H2 4287   1.444   3.313   5.145
 1249WAT      O 4288   0.438   2.254   5.223
 1249WAT     H1 4289   0.520   2.198   5.232
 1249WAT     H2 4290   0.357   2.196   5.227
 1250WAT      O 4291   1.603   2.309   4.461
 1250WAT     H1 4292   1.529   2.355   4.411
 1250WAT     H2 4293   1.654   2.377   4.514
 1251WAT      O 4294   0.231   3.575   4.207
 1251WAT     H1 4295   0.265   3.652   4.261
 1251WAT     H2 4296   0.275   3.575   4.117
 1252WAT      O 4297   1.127   3.203   5.414
 1252WAT     H1 4298   1.174   3.203   5.502
 1252WAT     H2 4299   1.079   3.116   5.403
 1253WAT      O 4300   0.230   3.296   4.262
 1253WAT     H1 4301   0.204   3.392   4.262
 1253WAT     H2 4302   0.159   3.242   4.307
 1254WAT      O 4303   0.240   2.953   4.610
 1254WAT     H1 4304   0.254   2.869   4.662
 1254WAT     H2 4305   0.185   3.017   4.665
 1255WAT      O 4306   0.620   3.648   5.163
 1255WAT     H1 4307   0.528   3.631   5.198
 1255WAT     H2 4308   0.648   3.740   5.189
 1256WAT      O 4309   0.606   2.826   3.847
 1256WAT     H1 4310   0.613   2.910   3.793
 1256WAT     H2 4311   0.652   2.839   3.935
 1257WAT      O 4312   1.594   1.976   5.204
 1257WAT     H1 4313   1.576   2.043   5.132
 1257WAT     H2 4314   1.591   2.022   5.293
 1258WAT      O 4315   0.122   2.505   4.287
 1258WAT     H1 4316   0.077   2.417   4.304
 1258WAT     H2 4317   0.121   2.559   4.371
 1259WAT      O 4318   1.842   3.629   4.083
 1259WAT     H1 4319   1.896   3.600   4.163
 1259WAT     H2 4320   1.872   3.719   4.054
 1260WAT      O 4321   0.027   3.458   3.841
 1260WAT     H1 4322   0.008   3.362   3.862
 1260WAT     H2 4323  -0.006   3.516   3.916
 1261WAT      O 4324   1.689   2.784   4.336
 1261WAT     H1 4325   1.784   2.755   4.344
 1261WAT     H2 4326   1.681   2.849   4.261
 1262WAT      O 4327   1.641   2.970   4.156
 1262WAT     H1 4328   1.727   2.972   4.104
 1262WAT     H2 4329   1.655   3.017   4.244
 1263WAT      O 4330   0.113   2.599   5.321
 1263WAT     H1 4331   0.201   2.586   5.366
 1263WAT     H2 4332   0.100   2.696   5.299
 1264WAT      O 4333   0.613   3.227   4.450
 1264WAT     H1 4334   0.564   3.140   4.459
 1264WAT     H2 4335   0.590   3.270   4.363
 1265WAT      O 4336   1.293   3.090   5.147
 1265WAT     H1 4337   1.330   3.017   5.089
 1265WAT     H2 4338   1.345   3.095   5.232
 1266WAT      O 4339   0.809   1.866   4.226
 1266WAT     H1 4340   0.849   1.957   4.217
 1266WAT     H2 4341   0.709   1.874   4.232
 1267WAT      O 4342   0.197   2.838   4.988
 1267WAT     H1 4343   0.286   2.793   4.974
 1267WAT     H2 4344   0.124   2.773   4.969
 1268WAT      O 4345   1.525   2.861   3.914
 1268WAT     H1 4346   1.462   2.785   3.927
 1268WAT     H2 4347   1.573   2.879   4.000
 1269WAT      O 4348   1.187   3.654   5.340
 1269WAT     H1 4349   1.211   3.714   5.264
 1269WAT     H2 4350   1.194   3.559   5.310
 1270WAT      O 4351   0.317   2.113   5.525
 1270WAT     H1 4352   0.388   2.184   5.531
 1270WAT     H2 4353   0.229   2.152   5.553
 1271WAT      O 4354   1.466   3.279   4.677
 1271WAT     H1 4355   1.407   3.285   4.757
 1271WAT     H2 4356   1.451   3.191   4.631
 1272WAT      O 4357   1.667   3.576   4.296
 1272WAT     H1 4358   1.626   3.553   4.208
 1272WAT     H2 4359   1.649   3.502   4.361
 1273WAT      O 4360   0.598   2.591   3.994
 1273WAT     H1 4361   0.622   2.660   3.926
 1273WAT     H2 4362   0.520   2.624   4.048
 1274WAT      O 4363   1.281   2.207   4.668
 1274WAT     H1 4364   1.195   2.157   4.655
 1274WAT     H2 4365   1.343   2.153   4.724
 1275WAT      O 4366   1.576   3.524   4.031
 1275WAT     H1 4367   1.665   3.570   4.034
 1275WAT     H2 4368   1.555   3.500   3.936
 1276WAT      O 4369   0.807   2.467   5.189
 1276WAT     H1 4370   0.760   2.464   5.278
 1276WAT     H2 4371   0.756   2.412   5.123
 1277WAT      O 4372   1.394   2.331   5.398
 1277WAT     H1 4373   1.374   2.374   5.486
 1277WAT     H2 4374   1.472   2.269   5.407
 1278WAT      O 4375   0.973   2.752   5.296
 1278WAT     H1 4376   1.019   2.668   5.267
 1278WAT     H2 4377   0.917   2.786   5.221
 1279WAT      O 4378   0.991   2.272   4.966
 1279WAT     H1 4379   0.914   2.306   5.020
 1279WAT     H2 4380   0.957   2.221   4.887
 1280WAT      O 4381   1.041   2.563   4.153
 1280WAT     H1 4382   1.067   2.559   4.249
 1280WAT     H2 4383   0.956   2.512   4.139
 1281WAT      O 4384   0.076   2.673   4.513
 1281WAT     H1 4385   0.175   2.661   4.522
 1281WAT     H2 4386   0.052   2.768   4.534
 1282WAT      O 4387   0.130   3.683   5.295
 1282WAT     H1 4388   0.120   3.668   5.394
 1282WAT     H2 4389   0.044   3.719   5.259
 1283WAT      O 4390   0.865   2.210   3.919
 1283WAT     H1 4391   0.924   2.273   3.870
 1283WAT     H2 4392   0.884   2.116   3.890
 1284WAT      O 4393   1.719   2.447   5.555
 1284WAT     H1 4394   1.693   2.536   5.519
 1284WAT     H2 4395   1.717   2.379   5.482
 1285WAT      O 4396   1.362   3.006   4.269
 1285WAT     H1 4397   1.445   2.977   4.221
 1285WAT     H2 4398   1.313   3.073   4.213
 1286WAT      O 4399   0.550   2.058   4.609
 1286WAT     H1 4400   0.545   2.053   4.709
 1286WAT     H2 4401   0.552   2.154   4.580
 1287WAT      O 4402   1.008   3.318   4.201
 1287WAT     H1 4403   0.962   3.390   4.149
 1287WAT     H2 4404   1.004   3.338   4.299
 1288WAT      O 4405   0.351   3.663   4.577
 1288WAT     H1 4406   0.401   3.577   4.583
 1288WAT     H2 4407   0.416   3.740   4.574
 1289WAT      O 4408   1.795   2.928   4.597
 1289WAT     H1 4409   1.733   2.913   4.521
 1289WAT     H2 4410   1.743   2.939   4.682
 1290WAT      O 4411   1.227   3.412   5.230
 1290WAT     H1 4412   1.233   3.335   5.294
 1290WAT     H2 4413   1.175   3.386   5.150
 1291WAT      O 4414   0.321   2.805   3.966
 1291WAT     H1 4415   0.403   2.844   3.924
 1291WAT     H2 4416   0.294   2.723   3.917
 1292WAT      O 4417   1.458   2.597   4.452
 1292WAT     H1 4418   1.453   2.532   4.527
 1292WAT     H2 4419   1.538   2.656   4.465
 1293WAT      O 4420   0.461   3.128   5.451
 1293WAT     H1 4421   0.411   3.129   5.365
 1293WAT     H2 4422   0.398   3.110   5.527
 1294WAT      O 4423   1.111   3.638   3.961
 1294WAT     H1 4424   1.051   3.576   4.011
 1294WAT     H2 4425   1.142   3.594   3.876
 1295WAT      O 4426   0.202   2.147   5.222
 1295WAT     H1 4427   0.122   2.207   5.209
 1295WAT     H2 4428   0.192   2.098   5.308
 1296WAT      O 4429   1.632   3.239   3.805
 1296WAT     H1 4430   1.600   3.333   3.795
 1296WAT     H2 4431   1.556   3.176   3.793
 1297WAT      O 4432   0.464   3.605   4.047
 1297WAT     H1 4433   0.497   3.644   4.133
 1297WAT     H2 4434   0.540   3.598   3.982
 1298WAT      O 4435   1.400   1.969   4.150
 1298WAT     H1 4436   1.376   1.932   4.060
 1298WAT     H2 4437   1.499   1.985   4.154
 1299WAT      O 4438   0.249   3.647   4.965
 1299WAT     H1 4439   0.306   3.582   5.015
 1299WAT     H2 4440   0.233   3.614   4.872
 1300WAT      O 4441   0.940   3.560   4.628
 1300WAT     H1 4442   1.020   3.503   4.649
 1300WAT     H2 4443   0.891   3.520   4.551
 1301WAT      O 4444   0.382   2.562   4.204
 1301WAT     H1 4445   0.427   2.472   4.201
 1301WAT     H2 4446   0.288   2.551   4.237
 1302WAT      O 4447   1.547   2.084   5.453
 1302WAT     H1 4448   1.542   2.121   5.545
 1302WAT     H2 4449   1.475   2.015   5.441
 1303WAT      O 4450   0.614   1.984   3.841
 1303WAT     H1 4451   0.712   1.962   3.848
 1303WAT     H2 4452   0.583   1.967   3.748
 1304WAT      O 4453   0.781   2.126   5.473
 1304WAT     H1 4454   0.848   2.065   5.516
 1304WAT     H2 4455   0.708   2.145   5.538
 1305WAT      O 4456   0.888   3.376   4.919
 1305WAT     H1 4457   0.865   3.351   4.825
 1305WAT     H2 4458   0.949   3.307   4.958
 1306WAT      O 4459   1.351   2.452   5.157
 1306WAT     H1 4460   1.379   2.409   5.242
 1306WAT     H2 4461   1.376   2.548   5.158
 1307WAT      O 4462   0.803   3.264   4.648
 1307WAT     H1 4463   0.893   3.278   4.606
 1307WAT     H2 4464   0.732   3.266   4.577
 1308WAT      O 4465   0.922   2.365   4.623
 1308WAT     H1 4466   0.897   2.356   4.527
 1308WAT     H2 4467   0.970   2.283   4.654
 1309WAT      O 4468   0.539   1.926   4.236
 1309WAT     H1 4469   0.458   1.927   4.294
 1309WAT     H2 4470   0.542   2.009   4.181
 1310WAT      O 4471   1.434   3.050   3.765
 1310WAT     H1 4472   1.466   2.974   3.822
 1310WAT     H2 4473   1.342   3.077   3.795
 1311WAT      O 4474   0.297   1.897   3.895
 1311WAT     H1 4475   0.346   1.981   3.874
 1311WAT     H2 4476   0.359   1.832   3.940
 1312WAT      O 4477   0.935   2.098   4.204
 1312WAT     H1 4478   0.887   2.139   4.126
 1312WAT     H2 4479   1.034   2.096   4.185
 1313WAT      O 4480   1.076   2.545   5.188
 1313WAT     H1 4481   0.996   2.484   5.191
 1313WAT     H2 4482   1.157   2.492   5.164
 1314WAT      O 4483   1.227   3.432   4.517
 1314WAT     H1 4484   1.248   3.506   4.452
 1314WAT     H2 4485   1.295   3.432   4.590
 1315WAT      O 4486   0.459   3.014   4.465
 1315WAT     H1 4487   0.388   2.987   4.530
 1315WAT     H2 4488   0.433   2.986   4.372
 1316WAT      O 4489   1.271   3.659   4.315
 1316WAT     H1 4490   1.315   3.723   4.251
 1316WAT     H2 4491   1.221   3.711   4.385
 1317WAT      O 4492   1.032   2.411   3.740
 1317WAT     H1 4493   0.991   2.493   3.701
 1317WAT     H2 4494   1.096   2.437   3.813
 1318WAT      O 4495   0.078   2.418   5.110
 1318WAT     H1 4496   0.170   2.417   5.069
 1318WAT     H2 4497   0.072   2.492   5.177
 1319WAT      O 4498   0.561   2.084   4.871
 1319WAT     H1 4499   0.599   2.000   4.908
 1319WAT     H2 4500   0.473   2.103   4.915
 1320WAT      O 4501   0.866   2.316   4.366
 1320WAT     H1 4502   0.834   2.388   4.304
 1320WAT     H2 4503   0.890   2.235   4.313
 1321WAT      O 4504   1.017   1.901   4.477
 1321WAT     H1 4505   0.945   1.906   4.408
 1321WAT     H2 4506   0.993   1.832   4.546
 1322WAT      O 4507   1.429   3.035   4.591
 1322WAT     H1 4508   1.374   2.951   4.584
 1322WAT     H2 4509   1.455   3.064   4.499
 1323WAT      O 4510   1.466   2.452   4.716
 1323WAT     H1 4511   1.436   2.357   4.723
 1323WAT     H2 4512   1.539   2.468   4.782
 1324WAT      O 4513   1.857   2.695   4.101
 1324WAT     H1 4514   1.899   2.631   4.165
 1324WAT     H2 4515   1.819   2.644   4.023
 1325WAT      O 4516   0.488   3.247   3.898
 1325WAT     H1 4517   0.401   3.232   3.945
 1325WAT     H2 4518   0.471   3.273   3.803
 1326WAT      O 4519   1.664   3.142   4.381
 1326WAT     H1 4520   1.763   3.150   4.395
 1326WAT     H2 4521   1.619   3.226   4.412
 1327WAT      O 4522   1.390   2.437   3.802
 1327WAT     H1 4523   1.336   2.416   3.883
 1327WAT     H2 4524   1.481   2.396   3.811
 1328WAT      O 4525   0.527   2.118   4.052
 1328WAT     H1 4526   0.554   2.059   3.977
 1328WAT     H2 4527   0.527   2.213   4.021
 1329WAT      O 4528   1.754   3.085   5.312
 1329WAT     H1 4529   1.845   3.046   5.299
 1329WAT     H2 4530   1.762   3.181   5.336
 1330WAT      O 4531   1.064   3.209   5.064
 1330WAT     H1 4532   0.984   3.186   5.119
 1330WAT     H2 4533   1.147   3.183   5.113
 1331WAT      O 4534   1.592   3.491   5.349
 1331WAT     H1 4535   1.619   3.525   5.259
 1331WAT     H2 4536   1.671   3.453   5.395
 1332WAT      O 4537   1.111   3.057   4.824
 1332WAT     H1 4538   1.071   3.101   4.905
 1332WAT     H2 4539   1.070   3.094   4.741
 1333WAT      O 4540   1.638   2.961   4.803
 1333WAT     H1 4541   1.643   3.042   4.862
 1333WAT     H2 4542   1.552   2.963   4.752
 1334WAT      O 4543   0.915   1.951   5.126
 1334WAT     H1 4544   0.940   1.931   5.031
 1334WAT     H2 4545   0.987   2.007   5.168
 1335WAT      O 4546   0.980   2.978   5.443
 1335WAT     H1 4547   0.881   2.984   5.453
 1335WAT     H2 4548   1.003   2.898   5.387
 1336WAT      O 4549   0.705   2.912   4.092
 1336WAT     H1 4550   0.691   2.919   4.191
 1336WAT     H2 4551   0.789   2.861   4.074
 1337WAT      O 4552   0.410   2.675   4.975
 1337WAT     H1 4553   0.496   2.687   5.025
 1337WAT     H2 4554   0.368   2.588   5.002
 1338WAT      O 4555   1.274   2.248   4.986
 1338WAT     H1 4556   1.295   2.322   5.050
 1338WAT     H2 4557   1.185   2.265   4.943
 1339WAT      O 4558   0.064   3.426   5.055
 1339WAT     H1 4559   0.018   3.508   5.021
 1339WAT     H2 4560   0.162   3.445   5.064
 1340WAT      O 4561   0.367   2.962   4.225
 1340WAT     H1 4562   0.360   3.045   4.169
 1340WAT     H2 4563   0.371   2.882   4.165
 1341WAT      O 4564   0.566   2.399   4.589
 1341WAT     H1 4565   0.578   2.465   4.515
 1341WAT     H2 4566   0.612   2.433   4.672
 1342WAT      O 4567   1.252   3.210   4.112
 1342WAT     H1 4568   1.302   3.287   4.152
 1342WAT     H2 4569   1.157   3.212   4.144
 1343WAT      O 4570   1.272   3.307   4.866
 1343WAT     H1 4571   1.319   3.320   4.953
 1343WAT     H2 4572   1.206   3.233   4.875
 1344WAT      O 4573   1.582   2.501   4.196
 1344WAT     H1 4574   1.551   2.562   4.269
 1344WAT     H2 4575   1.632   2.553   4.127
 1345WAT      O 4576   0.354   3.372   5.053
 1345WAT     H1 4577   0.333   3.328   4.966
 1345WAT     H2 4578   0.451   3.398   5.056
 1346WAT      O 4579   0.402   2.613   5.322
 1346WAT     H1 4580   0.470   2.668   5.275
 1346WAT     H2 4581   0.442   2.525   5.349
 1347WAT      O 4582   1.587   2.641   5.394
 1347WAT     H1 4583   1.495   2.679   5.389
 1347WAT     H2 4584   1.647   2.688   5.329
 1348WAT      O 4585   1.013   1.967   5.494
 1348WAT     H1 4586   1.019   2.052   5.442
 1348WAT     H2 4587   1.045   1.891   5.437
 1349WAT      O 4588   0.504   1.912   5.464
 1349WAT     H1 4589   0.462   1.855   5.394
 1349WAT     H2 4590   0.438   1.981   5.496
 1350WAT      O 4591   0.573   2.732   4.753
 1350WAT     H1 4592   0.617   2.821   4.744
 1350WAT     H2 4593   0.510   2.732   4.830
 1351WAT      O 4594   1.360   2.724   4.769
 1351WAT     H1 4595   1.285   2.724   4.703
 1351WAT     H2 4596   1.397   2.632   4.778
 1352WAT      O 4597   1.209   2.387   3.999
 1352WAT     H1 4598   1.222   2.303   4.053
 1352WAT     H2 4599   1.180   2.461   4.059
 1353WAT      O 4600   0.307   2.075   4.955
 1353WAT     H1 4601   0.284   2.112   5.045
 1353WAT     H2 4602   0.277   1.980   4.949
 1354WAT      O 4603   0.037   3.172   5.006
 1354WAT     H1 4604   0.090   3.123   5.074
 1354WAT     H2 4605   0.059   3.270   5.011
 1355WAT      O 4606   0.732   2.496   4.788
 1355WAT     H1 4607   0.791   2.470   4.712
 1355WAT     H2 4608   0.704   2.592   4.777
 1356WAT      O 4609   1.728   2.797   5.578
 1356WAT     H1 4610   1.682   2.790   5.489
 1356WAT     H2 4611   1.666   2.841   5.644
 1357WAT      O 4612   0.307   1.925   4.342
 1357WAT     H1 4613   0.296   2.019   4.375
 1357WAT     H2 4614   0.302   1.862   4.419
 1358WAT      O 4615   1.622   2.229   4.098
 1358WAT     H1 4616   1.624   2.153   4.162
 1358WAT     H2 4617   1.574   2.306   4.138
 1359WAT      O 4618   1.023   2.628   4.690
 1359WAT     H1 4619   1.038   2.649   4.786
 1359WAT     H2 4620   0.993   2.533   4.681
 1360WAT      O 4621   0.980   3.435   5.424
 1360WAT     H1 4622   0.960   3.479   5.336
 1360WAT     H2 4623   1.019   3.344   5.408
 1361WAT      O 4624   1.859   3.380   5.329
 1361WAT     H1 4625   1.873   3.407   5.234
 1361WAT     H2 4626   1.942   3.402   5.382
 1362WAT      O 4627   0.350   2.760   5.528
 1362WAT     H1 4628   0.426   2.804   5.576
 1362WAT     H2 4629   0.385   2.713   5.446
 1363WAT      O 4630   1.540   2.136   3.849
 1363WAT     H1 4631   1.479   2.061   3.872
 1363WAT     H2 4632   1.562   2.188   3.932
 1364WAT      O 4633   1.303   2.700   3.766
 1364WAT     H1 4634   1.337   2.607   3.781
 1364WAT     H2 4635   1.321   2.727   3.671
 1365WAT      O 4636   1.068   3.195   4.573
 1365WAT     H1 4637   1.075   3.111   4.518
 1365WAT     H2 4638   1.130   3.264   4.537
 1366WAT      O 4639   0.319   2.672   4.673
 1366WAT     H1 4640   0.412   2.708   4.678
 1366WAT     H2 4641   0.313   2.587   4.725
 1367WAT      O 4642   0.339   2.371   4.730
 1367WAT     H1 4643   0.287   2.288   4.713
 1367WAT     H2 4644   0.416   2.376   4.666
 1368WAT      O 4645   1.138   2.242   5.402
 1368WAT     H1 4646   1.093   2.305   5.466
 1368WAT     H2 4647   1.231   2.273   5.385
 1369WAT      O 4648   1.160   2.069   5.201
 1369WAT     H1 4649   1.160   2.133   5.278
 1369WAT     H2 4650   1.188   2.117   5.118
 1370WAT      O 4651   0.008   3.188   3.924
 1370WAT     H1 4652  -0.085   3.209   3.893
 1370WAT     H2 4653   0.018   3.089   3.937
 1371WAT      O 4654   0.088   3.663   4.651
 1371WAT     H1 4655   0.046   3.577   4.624
 1371WAT     H2 4656   0.182   3.666   4.617
 1372WAT      O 4657   0.504   3.430   4.634
 1372WAT     H1 4658   0.570   3.504   4.643
 1372WAT     H2 4659   0.548   3.351   4.592
 1373WAT      O 4660   1.002   2.658   4.962
 1373WAT     H1 4661   1.043   2.626   5.048
 1373WAT     H2 4662   0.906   2.631   4.959
 1374WAT      O 4663   0.040   2.406   4.838
 1374WAT     H1 4664   0.125   2.373   4.797
 1374WAT     H2 4665   0.053   2.421   4.936
 1375WAT      O 4666   0.189   2.382   5.446
 1375WAT     H1 4667   0.248   2.342   5.376
 1375WAT     H2 4668   0.131   2.453   5.405
 1376WAT      O 4669   1.369   2.812   5.384
 1376WAT     H1 4670   1.408   2.901   5.404
 1376WAT     H2 4671   1.379   2.792   5.287
 1377WAT      O 4672   0.815   2.434   4.049
 1377WAT     H1 4673   0.822   2.345   4.003
 1377WAT     H2 4674   0.721   2.468   4.041
 1378WAT      O 4675   1.657   2.466   4.930
 1378WAT     H1 4676   1.619   2.397   4.992
 1378WAT     H2 4677   1.739   2.430   4.886
 1379WAT      O 4678   0.252   3.426   5.468
 1379WAT     H1 4679   0.222   3.483   5.544
 1379WAT     H2 4680   0.245   3.329   5.494
 1380WAT      O 4681   0.671   2.326   4.993
 1380WAT     H1 4682   0.637   2.237   4.963
 1380WAT     H2 4683   0.697   2.380   4.913
 1381WAT      O 4684   0.930   3.540   5.189
 1381WAT     H1 4685   0.906   3.522   5.094
 1381WAT     H2 4686   0.960   3.634   5.199
 1382WAT      O 4687   0.473   2.362   3.915
 1382WAT     H1 4688   0.534   2.442   3.919
 1382WAT     H2 4689   0.378   2.393   3.922
 1383WAT      O 4690   0.159   2.999   5.190
 1383WAT     H1 4691   0.181   2.938   5.266
 1383WAT     H2 4692   0.169   2.950   5.104
 1384WAT      O 4693   1.347   2.921   4.958
 1384WAT     H1 4694   1.371   2.858   4.884
 1384WAT     H2 4695   1.257   2.961   4.940
 1385WAT      O 4696   1.302   2.717   4.033
 1385WAT     H1 4697   1.216   2.686   4.075
 1385WAT     H2 4698   1.298   2.703   3.934
 1386WAT      O 4699   1.759   3.609   4.878
 1386WAT     H1 4700   1.820   3.639   4.805
 1386WAT     H2 4701   1.721   3.520   4.856
 1387WAT      O 4702   1.252   3.593   4.852
 1387WAT     H1 4703   1.336   3.598   4.798
 1387WAT     H2 4704   1.229   3.497   4.870
 1388WAT      O 4705   0.083   3.120   4.746
 1388WAT     H1 4706   0.078   3.119   4.846
 1388WAT     H2 4707   0.000   3.079   4.708
 1389WAT      O 4708   0.688   3.524   5.440
 1389WAT     H1 4709   0.632   3.605   5.449
 1389WAT     H2 4710   0.740   3.528   5.354
 1390WAT      O 4711   1.726   1.997   4.247
 1390WAT     H1 4712   1.799   1.980   4.180
 1390WAT     H2 4713   1.695   1.910   4.285
 1391WAT      O 4714   1.388   3.435   4.201
 1391WAT     H1 4715   1.455   3.447   4.127
 1391WAT     H2 4716   1.348   3.524   4.224
 1392WAT      O 4717   0.130   3.656   5.575
 1392WAT     H1 4718   0.089   3.582   5.628
 1392WAT     H2 4719   0.194   3.707   5.633
 1393WAT      O 4720   1.280   2.789   4.396
 1393WAT     H1 4721   1.340   2.708   4.398
 1393WAT     H2 4722   1.320   2.858   4.336
 1394WAT      O 4723   0.830   3.135   5.146
 1394WAT     H1 4724   0.825   3.168   5.241
 1394WAT     H2 4725   0.744   3.154   5.100
 1395WAT      O 4726   0.672   3.478   3.878
 1395WAT     H1 4727   0.681   3.488   3.779
 1395WAT     H2 4728   0.632   3.389   3.899
 1396WAT      O 4729   1.650   3.582   5.118
 1396WAT     H1 4730   1.703   3.592   5.034
 1396WAT     H2 4731   1.623   3.672   5.152
 1397WAT      O 4732   1.841   2.037   4.687
 1397WAT     H1 4733   1.880   1.952   4.651
 1397WAT     H2 4734   1.743   2.039   4.668
 1398WAT      O 4735   0.263   2.188   4.444
 1398WAT     H1 4736   0.184   2.239   4.410
 1398WAT     H2 4737   0.254   2.173   4.542
 1399WAT      O 4738   1.194   3.474   3.755
 1399WAT     H1 4739   1.200   3.381   3.792
 1399WAT     H2 4740   1.135   3.474   3.675
 1400WAT      O 4741   0.822   2.864   5.096
 1400WAT     H1 4742   0.862   2.863   5.004
 1400WAT     H2 4743   0.832   2.956   5.136
 1401WAT      O 4744   0.916   2.772   4.015
 1401WAT     H1 4745   0.979   2.810   3.947
 1401WAT     H2 4746   0.956   2.689   4.054
 1402WAT      O 4747   1.504   3.469   3.768
 1402WAT     H1 4748   1.412   3.506   3.775
 1402WAT     H2 4749   1.542   3.489   3.678
 1403WAT      O 4750   0.372   3.150   5.214
 1403WAT     H1 4751   0.359   3.243   5.180
 1403WAT     H2 4752   0.288   3.098   5.201
 1404WAT      O 4753   1.614   3.154   5.013
 1404WAT     H1 4754   1.674   3.157   5.093
 1404WAT     H2 4755   1.539   3.218   5.026
 1405WAT      O 4756   1.039   2.960   4.420
 1405WAT     H1 4757   0.969   2.913   4.474
 1405WAT     H2 4758   1.098   2.892   4.377
 1406WAT      O 4759   1.014   2.098   4.695
 1406WAT     H1 4760   1.006   2.062   4.602
 1406WAT     H2 4761   1.012   2.022   4.760
 1407WAT      O 4762   0.590   3.349   4.215
 1407WAT     H1 4763   0.632   3.291   4.145
 1407WAT     H2 4764   0.546   3.428   4.171
 1408WAT      O 4765   1.709   2.247   5.105
 1408WAT     H1 4766   1.782   2.316   5.109
 1408WAT     H2 4767   1.737   2.172   5.046
 1409WAT      O 4768   0.255   3.210   4.014
 1409WAT     H1 4769   0.159   3.211   3.987
 1409WAT     H2 4770   0.267   3.263   4.098
 1410WAT      O 4771   0.105   2.875   5.450
 1410WAT     H1 4772   0.028   2.842   5.504
 1410WAT     H2 4773   0.190   2.845   5.492
 1411WAT      O 4774   0.672   2.065   5.213
 1411WAT     H1 4775   0.762   2.049   5.173
 1411WAT     H2 4776   0.680   2.070   5.312
 1412WAT      O 4777   0.075   2.207   3.757
 1412WAT     H1 4778  -0.017   2.179   3.728
 1412WAT     H2 4779   0.106   2.284   3.701
 1413WAT      O 4780   1.440   2.718   5.122
 1413WAT     H1 4781   1.383   2.770   5.059
 1413WAT     H2 4782   1.536   2.730   5.098
 1414WAT      O 4783   0.072   2.028   4.042
 1414WAT     H1 4784   0.055   2.111   3.988
 1414WAT     H2 4785   0.162   1.991   4.020
 1415WAT      O 4786   1.183   3.197   3.843
 1415WAT     H1 4787   1.084   3.186   3.845
 1415WAT     H2 4788   1.217   3.212   3.936
 1416WAT      O 4789   0.613   2.704   5.155
 1416WAT     H1 4790   0.669   2.785   5.138
 1416WAT     H2 4791   0.672   2.624   5.158
 1417WAT      O 4792   1.493   3.629   4.683
 1417WAT     H1 4793   1.526   3.693   4.614
 1417WAT     H2 4794   1.559   3.623   4.758
 1418WAT      O 4795   0.716   2.427   5.432
 1418WAT     H1 4796   0.735   2.492   5.506
 1418WAT     H2 4797   0.776   2.347   5.441
 1419WAT      O 4798   1.450   3.082   5.357
 1419WAT     H1 4799   1.441   3.072   5.456
 1419WAT     H2 4800   1.546   3.075   5.331
 1420WAT      O 4801   0.390   3.603   5.284
 1420WAT     H1 4802   0.299   3.644   5.282
 1420WAT     H2 4803   0.383   3.509   5.316
 1421WAT      O 4804   1.674   2.745   4.978
 1421WAT     H1 4805   1.647   2.656   4.941
 1421WAT     H2 4806   1.675   2.813   4.905
 1422WAT      O 4807   1.225   2.187   4.173
 1422WAT     H1 4808   1.290   2.113   4.162
 1422WAT     H2 4809   1.245   2.237   4.257
 1423WAT      O 4810   0.594   2.607   4.376
 1423WAT     H1 4811   0.644   2.692   4.357
 1423WAT     H2 4812   0.506   2.609   4.328
 1424WAT      O 4813   1.777   2.204   5.366
 1424WAT     H1 4814   1.760   2.235   5.272
 1424WAT     H2 4815   1.693   2.167   5.404
 1425WAT      O 4816   1.730   2.796   5.241
 1425WAT     H1 4817   1.768   2.887   5.256
 1425WAT     H2 4818   1.722   2.779   5.142
 1426WAT      O 4819   0.859   3.236   3.740
 1426WAT     H1 4820   0.813   3.251   3.828
 1426WAT     H2 4821   0.903   3.321   3.710
 1427WAT      O 4822   0.661   3.652   4.677
 1427WAT     H1 4823   0.615   3.740   4.664
 1427WAT     H2 4824   0.760   3.664   4.670
 1428WAT      O 4825   0.859   2.818   4.585
 1428WAT     H1 4826   0.913   2.749   4.633
 1428WAT     H2 4827   0.827   2.887   4.651
 1429WAT      O 4828   1.083   2.846   3.811
 1429WAT     H1 4829   1.060   2.899   3.729
 1429WAT     H2 4830   1.164   2.790   3.792
 1430WAT      O 4831   1.861   3.431   4.575
 1430WAT     H1 4832   1.790   3.419   4.505
 1430WAT     H2 4833   1.862   3.352   4.635
 1431WAT      O 4834   0.221   3.176   5.568
 1431WAT     H1 4835   0.156   3.103   5.547
 1431WAT     H2 4836   0.225   3.190   5.666
 1432WAT      O 4837   0.079   3.102   4.377
 1432WAT     H1 4838   0.078   3.055   4.465
 1432WAT     H2 4839   0.161   3.074   4.326
 1433WAT      O 4840   0.672   3.253   5.348
 1433WAT     H1 4841   0.594   3.203   5.386
 1433WAT     H2 4842   0.669   3.348   5.379
 1434WAT      O 4843   1.824   2.054   4.951
 1434WAT     H1 4844   1.820   1.964   4.995
 1434WAT     H2 4845   1.827   2.043   4.852
 1435WAT      O 4846   0.428   2.286   4.244
 1435WAT     H1 4847   0.458   2.214   4.182
 1435WAT     H2 4848   0.389   2.246   4.327
 1436WAT      O 4849   1.705   3.349   4.828
 1436WAT     H1 4850   1.612   3.324   4.801
 1436WAT     H2 4851   1.731   3.299   4.910
 1437WAT      O 4852   0.317   2.409   5.004
 1437WAT     H1 4853   0.355   2.350   5.076
 1437WAT     H2 4854   0.357   2.383   4.916
 1438WAT      O 4855   0.812   3.448   4.411
 1438WAT     H1 4856   0.844   3.458   4.317
 1438WAT     H2 4857   0.733   3.386   4.413
 1439WAT      O 4858   1.424   2.076   4.836
 1439WAT     H1 4859   1.476   2.011   4.891
 1439WAT     H2 4860   1.375   2.139   4.897
 1440WAT      O 4861   1.001   1.896   4.878
 1440WAT     H1 4862   0.938   1.824   4.847
 1440WAT     H2 4863   1.094   1.860   4.878
 1441WAT      O 4864   0.770   3.192   4.025
 1441WAT     H1 4865   0.724   3.105   4.042
 1441WAT     H2 4866   0.861   3.189   4.066
 1442WAT      O 4867   0.618   3.429   5.008
 1442WAT     H1 4868   0.613   3.511   5.065
 1442WAT     H2 4869   0.707   3.426   4.963
 1443WAT      O 4870   1.352   1.914   3.892
 1443WAT     H1 4871   1.387   1.873   3.808
 1443WAT     H2 4872   1.262   1.876   3.912
 1444WAT      O 4873   1.300   2.315   4.415
 1444WAT     H1 4874   1.241   2.395   4.419
 1444WAT     H2 4875   1.315   2.280   4.508
 1445WAT      O 4876   1.593   2.083   4.606
 1445WAT     H1 4877   1.509   2.082   4.660
 1445WAT     H2 4878   1.595   2.166   4.550
 1446WAT      O 4879   0.039   2.939   4.024
 1446WAT     H1 4880   0.138   2.928   4.015
 1446WAT     H2 4881  -0.001   2.853   4.056
 1447WAT      O 4882   0.875   3.508   4.061
 1447WAT     H1 4883   0.798   3.473   4.007
 1447WAT     H2 4884   0.843   3.579   4.123
 1448WAT      O 4885   0.230   2.490   5.699
 1448WAT     H1 4886   0.137   2.488   5.736
 1448WAT     H2 4887   0.231   2.451   5.607
 1449WAT      O 4888   0.225   2.137   6.582
 1449WAT     H1 4889   0.260   2.120   6.674
 1449WAT     H2 4890   0.137   2.092   6.570
 1450WAT      O 4891   0.019   2.230   6.233
 1450WAT     H1 4892  -0.063   2.273   6.272
 1450WAT     H2 4893  -0.009   2.157   6.170
 1451WAT      O 4894   0.569   3.137   6.751
 1451WAT     H1 4895   0.476   3.130   6.714
 1451WAT     H2 4896   0.580   3.226   6.795
 1452WAT      O 4897   1.555   3.373   6.289
 1452WAT     H1 4898   1.498   3.357   6.370
 1452WAT     H2 4899   1.496   3.383   6.209
 1453WAT      O 4900   1.135   2.565   6.303
 1453WAT     H1 4901   1.192   2.643   6.278
 1453WAT     H2 4902   1.075   2.591   6.379
 1454WAT      O 4903   1.755   2.469   5.817
 1454WAT     H1 4904   1.743   2.456   5.718
 1454WAT     H2 4905   1.725   2.388   5.866
 1455WAT      O 4906   0.768   3.006   6.609
 1455WAT     H1 4907   0.690   3.023   6.669
 1455WAT     H2 4908   0.802   3.093   6.573
 1456WAT      O 4909   0.685   2.874   6.251
 1456WAT     H1 4910   0.754   2.858   6.321
 1456WAT     H2 4911   0.612   2.931   6.289
 1457WAT      O 4912   0.335   3.297   6.647
 1457WAT     H1 4913   0.257   3.266   6.594
 1457WAT     H2 4914   0.393   3.355   6.590
 1458WAT      O 4915   1.603   2.309   6.323
 1458WAT     H1 4916   1.529   2.355   6.273
 1458WAT     H2 4917   1.654   2.377   6.376
 1459WAT      O 4918   0.231   3.575   6.069
 1459WAT     H1 4919   0.265   3.652   6.123
 1459WAT     H2 4920   0.275   3.575   5.979
 1460WAT      O 4921   0.230   3.296   6.124
 1460WAT     H1 4922   0.204   3.392   6.124
 1460WAT     H2 4923   0.159   3.242   6.169
 1461WAT      O 4924   0.240   2.953   6.472
 1461WAT     H1 4925   0.254   2.869   6.524
 1461WAT     H2 4926   0.185   3.017   6.527
 1462WAT      O 4927   0.620   3.648   7.025
 1462WAT     H1 4928   0.528   3.631   7.060
 1462WAT     H2 4929   0.648   3.740   7.051
 1463WAT      O 4930   0.606   2.826   5.709
 1463WAT     H1 4931   0.613   2.910   5.655
 1463WAT     H2 4932   0.652   2.839   5.797
 1464WAT      O 4933   0.122   2.505   6.149
 1464WAT     H1 4934   0.077   2.417   6.166
 1464WAT     H2 4935   0.121   2.559   6.233
 1465WAT      O 4936   1.842   3.629   5.945
 1465WAT     H1 4937   1.896   3.600   6.025
 1465WAT     H2 4938   1.872   3.719   5.916
 1466WAT      O 4939   0.027   3.458   5.703
 1466WAT     H1 4940   0.008   3.362   5.724
 1466WAT     H2 4941  -0.006   3.516   5.778
 1467WAT      O 4942   1.689   2.784   6.198
 1467WAT     H1 4943   1.784   2.755   6.206
 1467WAT     H2 4944   1.681   2.849   6.123
 1468WAT      O 4945   1.641   2.970   6.018
 1468WAT     H1 4946   1.727   2.972   5.966
 1468WAT     H2 4947   1.655   3.017   6.106
 1469WAT      O 4948   0.613   3.227   6.312
 1469WAT     H1 4949   0.564   3.140   6.321
 1469WAT     H2 4950   0.590   3.270   6.225
 1470WAT      O 4951   0.809   1.866   6.088
 1470WAT     H1 4952   0.849   1.957   6.079
 1470WAT     H2 4953   0.709   1.874   6.094
 1471WAT      O 4954   0.197   2.838   6.850
 1471WAT     H1 4955   0.286   2.793   6.836
 1471WAT     H2 4956   0.124   2.773   6.831
 1472WAT      O 4957   1.525   2.861   5.776
 1472WAT     H1 4958   1.462   2.785   5.789
 1472WAT     H2 4959   1.573   2.879   5.862
 1473WAT      O 4960   1.466   3.279   6.539
 1473WAT     H1 4961   1.407   3.285   6.619
 1473WAT     H2 4962   1.451   3.191   6.493
 1474WAT      O 4963   1.667   3.576   6.158
 1474WAT     H1 4964   1.626   3.553   6.070
 1474WAT     H2 4965   1.649   3.502   6.223
 1475WAT      O 4966   0.598   2.591   5.856
 1475WAT     H1 4967   0.622   2.660   5.788
 1475WAT     H2 4968   0.520   2.624   5.910
 1476WAT      O 4969   1.281   2.207   6.530
 1476WAT     H1 4970   1.195   2.157   6.517
 1476WAT     H2 4971   1.343   2.153   6.586
 1477WAT      O 4972   1.576   3.524   5.893
 1477WAT     H1 4973   1.665   3.570   5.896
 1477WAT     H2 4974   1.555   3.500   5.798
 1478WAT      O 4975   0.807   2.467   7.051
 1478WAT     H1 4976   0.760   2.464   7.140
 1478WAT     H2 4977   0.756   2.412   6.985
 1479WAT      O 4978   0.991   2.272   6.828
 1479WAT     H1 4979   0.914   2.306   6.882
 1479WAT     H2 4980   0.957   2.221   6.749
 1480WAT      O 4981   1.041   2.563   6.015
 1480WAT     H1 4982   1.067   2.559   6.111
 1480WAT     H2 4983   0.956   2.512   6.001
 1481WAT      O 4984   0.076   2.673   6.375
 1481WAT     H1 4985   0.175   2.661   6.384
 1481WAT     H2 4986   0.052   2.768   6.396
 1482WAT      O 4987   0.130   3.683   7.157
 1482WAT     H1 4988   0.120   3.668   7.256
 1482WAT     H2 4989   0.044   3.719   7.121
 1483WAT      O 4990   0.865   2.210   5.781
 1483WAT     H1 4991   0.924   2.273   5.732
 1483WAT     H2 4992   0.884   2.116   5.752
 1484WAT      O 4993   1.362   3.006   6.131
 1484WAT     H1 4994   1.445   2.977   6.083
 1484WAT     H2 4995   1.313   3.073   6.075
 1485WAT      O 4996   0.550   2.058   6.471
 1485WAT     H1 4997   0.545   2.053   6.571
 1485WAT     H2 4998   0.552   2.154   6.442
 1486WAT      O 4999   1.008   3.318   6.063
 1486WAT     H1 5000   0.962   3.390   6.011
 1486WAT     H2 5001   1.004   3.338   6.161
 1487WAT      O 5002   0.351   3.663   6.439
 1487WAT     H1 5003   0.401   3.577   6.445
 1487WAT     H2 5004   0.416   3.740   6.436
 1488WAT      O 5005   1.795   2.928   6.459
 1488WAT     H1 5006   1.733   2.913   6.383
 1488WAT     H2 5007   1.743   2.939   6.544
 1489WAT      O 5008   0.321   2.805   5.828
 1489WAT     H1 5009   0.403   2.844   5.786
 1489WAT     H2 5010   0.294   2.723   5.779
 1490WAT      O 5011   1.458   2.597   6.314
 1490WAT     H1 5012   1.453   2.532   6.389
 1490WAT     H2 5013   1.538   2.656   6.327
 1491WAT      O 5014   1.111   3.638   5.823
 1491WAT     H1 5015   1.051   3.576   5.873
 1491WAT     H2 5016   1.142   3.594   5.738
 1492WAT      O 5017   1.632   3.239   5.667
 1492WAT     H1 5018   1.600   3.333   5.657
 1492WAT     H2 5019   1.556   3.176   5.655
 1493WAT      O 5020   0.464   3.605   5.909
 1493WAT     H1 5021   0.497   3.644   5.995
 1493WAT     H2 5022   0.540   3.598   5.844
 1494WAT      O 5023   1.400   1.969   6.012
 1494WAT     H1 5024   1.376   1.932   5.922
 1494WAT     H2 5025   1.499   1.985   6.016
 1495WAT      O 5026   0.249   3.647   6.827
 1495WAT     H1 5027   0.306   3.582   6.877
 1495WAT     H2 5028   0.233   3.614   6.734
 1496WAT      O 5029   0.940   3.560   6.490
 1496WAT     H1 5030   1.020   3.503   6.511
 1496WAT     H2 5031   0.891   3.520   6.413
 1497WAT      O 5032   0.382   2.562   6.066
 1497WAT     H1 5033   0.427   2.472   6.063
 1497WAT     H2 5034   0.288   2.551   6.099
 1498WAT      O 5035   0.614   1.984   5.703
 1498WAT     H1 5036   0.712   1.962   5.710
 1498WAT     H2 5037   0.583   1.967   5.610
 1499WAT      O 5038   0.888   3.376   6.781
 1499WAT     H1 5039   0.865   3.351   6.687
 1499WAT     H2 5040   0.949   3.307   6.820
 1500WAT      O 5041   0.803   3.264   6.510
 1500WAT     H1 5042   0.893   3.278   6.468
 1500WAT     H2 5043   0.732   3.266   6.439
 1501WAT      O 5044   0.922   2.365   6.485
 1501WAT     H1 5045   0.897   2.356   6.389
 1501WAT     H2 5046   0.970   2.283   6.516
 1502WAT      O 5047   0.539   1.926   6.098
 1502WAT     H1 5048   0.458   1.927   6.156
 1502WAT     H2 5049   0.542   2.009   6.043
 1503WAT      O 5050   1.434   3.050   5.627
 1503WAT     H1 5051   1.466   2.974   5.684
 1503WAT     H2 5052   1.342   3.077   5.657
 1504WAT      O 5053   0.297   1.897   5.757
 1504WAT     H1 5054   0.346   1.981   5.736
 1504WAT     H2 5055   0.359   1.832   5.802
 1505WAT      O 5056   0.935   2.098   6.066
 1505WAT     H1 5057   0.887   2.139   5.988
 1505WAT     H2 5058   1.034   2.096   6.047
 1506WAT      O 5059   1.227   3.432   6.379
 1506WAT     H1 5060   1.248   3.506   6.314
 1506WAT     H2 5061   1.295   3.432   6.452
 1507WAT      O 5062   0.459   3.014   6.327
 1507WAT     H1 5063   0.388   2.987   6.392
 1507WAT     H2 5064   0.433   2.986   6.234
 1508WAT      O 5065   1.271   3.659   6.177
 1508WAT     H1 5066   1.315   3.723   6.113
 1508WAT     H2 5067   1.221   3.711   6.247
 1509WAT      O 5068   1.032   2.411   5.602
 1509WAT     H1 5069   0.991   2.493   5.563
 1509WAT     H2 5070   1.096   2.437   5.675
 1510WAT      O 5071   0.561   2.084   6.733
 1510WAT     H1 5072   0.599   2.000   6.770
 1510WAT     H2 5073   0.473   2.103   6.777
 1511WAT      O 5074   0.866   2.316   6.228
 1511WAT     H1 5075   0.834   2.388   6.166
 1511WAT     H2 5076   0.890   2.235   6.175
 1512WAT      O 5077   1.017   1.901   6.339
 1512WAT     H1 5078   0.945   1.906   6.270
 1512WAT     H2 5079   0.993   1.832   6.408
 1513WAT      O 5080   1.429   3.035   6.453
 1513WAT     H1 5081   1.374   2.951   6.446
 1513WAT     H2 5082   1.455   3.064   6.361
 1514WAT      O 5083   1.466   2.452   6.578
 1514WAT     H1 5084   1.436   2.357   6.585
 1514WAT     H2 5085   1.539   2.468   6.644
 1515WAT      O 5086   1.857   2.695   5.963
 1515WAT     H1 5087   1.899   2.631   6.027
 1515WAT     H2 5088   1.819   2.644   5.885
 1516WAT      O 5089   0.488   3.247   5.760
 1516WAT     H1 5090   0.401   3.232   5.807
 1516WAT     H2 5091   0.471   3.273   5.665
 1517WAT      O 5092   1.664   3.142   6.243
 1517WAT     H1 5093   1.763   3.150   6.257
 1517WAT     H2 5094   1.619   3.226   6.274
 1518WAT      O 5095   1.390   2.437   5.664
 1518WAT     H1 5096   1.336   2.416   5.745
 1518WAT     H2 5097   1.481   2.396   5.673
 1519WAT      O 5098   0.527   2.118   5.914
 1519WAT     H1 5099   0.554   2.059   5.839
 1519WAT     H2 5100   0.527   2.213   5.883
 1520WAT      O 5101   1.754   3.085   7.174
 1520WAT     H1 5102   1.845   3.046   7.161
 1520WAT     H2 5103   1.762   3.181   7.198
 1521WAT      O 5104   1.111   3.057   6.686
 1521WAT     H1 5105   1.071   3.101   6.767
 1521WAT     H2 5106   1.070   3.094   6.603
 1522WAT      O 5107   1.638   2.961   6.665
 1522WAT     H1 5108   1.643   3.042   6.724
 1522WAT     H2 5109   1.552   2.963   6.614
 1523WAT      O 5110   0.705   2.912   5.954
 1523WAT     H1 5111   0.691   2.919   6.053
 1523WAT     H2 5112   0.789   2.861   5.936
 1524WAT      O 5113   0.410   2.675   6.837
 1524WAT     H1 5114   0.496   2.687   6.887
 1524WAT     H2 5115   0.368   2.588   6.864
 1525WAT      O 5116   1.274   2.248   6.848
 1525WAT     H1 5117   1.295   2.322   6.912
 1525WAT     H2 5118   1.185   2.265   6.805
 1526WAT      O 5119   0.064   3.426   6.917
 1526WAT     H1 5120   0.018   3.508   6.883
 1526WAT     H2 5121   0.162   3.445   6.926
 1527WAT      O 5122   0.367   2.962   6.087
 1527WAT     H1 5123   0.360   3.045   6.031
 1527WAT     H2 5124   0.371   2.882   6.027
 1528WAT      O 5125   0.566   2.399   6.451
 1528WAT     H1 5126   0.578   2.465   6.377
 1528WAT     H2 5127   0.612   2.433   6.534
 1529WAT      O 5128   1.252   3.210   5.974
 1529WAT     H1 5129   1.302   3.287   6.014
 1529WAT     H2 5130   1.157   3.212   6.006
 1530WAT      O 5131   1.272   3.307   6.728
 1530WAT     H1 5132   1.319   3.320   6.815
 1530WAT     H2 5133   1.206   3.233   6.737
 1531WAT      O 5134   1.582   2.501   6.058
 1531WAT     H1 5135   1.551   2.562   6.131
 1531WAT     H2 5136   1.632   2.553   5.989
 1532WAT      O 5137   0.354   3.372   6.915
 1532WAT     H1 5138   0.333   3.328   6.828
 1532WAT     H2 5139   0.451   3.398   6.918
 1533WAT      O 5140   0.573   2.732   6.615
 1533WAT     H1 5141   0.617   2.821   6.606
 1533WAT     H2 5142   0.510   2.732   6.692
 1534WAT      O 5143   1.360   2.724   6.631
 1534WAT     H1 5144   1.285   2.724   6.565
 1534WAT     H2 5145   1.397   2.632   6.640
 1535WAT      O 5146   1.209   2.387   5.861
 1535WAT     H1 5147   1.222   2.303   5.915
 1535WAT     H2 5148   1.180   2.461   5.921
 1536WAT      O 5149   0.307   2.075   6.817
 1536WAT     H1 5150   0.284   2.112   6.907
 1536WAT     H2 5151   0.277   1.980   6.811
 1537WAT      O 5152   0.037   3.172   6.868
 1537WAT     H1 5153   0.090   3.123   6.936
 1537WAT     H2 5154   0.059   3.270   6.873
 1538WAT      O 5155   0.732   2.496   6.650
 1538WAT     H1 5156   0.791   2.470   6.574
 1538WAT     H2 5157   0.704   2.592   6.639
 1539WAT      O 5158   0.307   1.925   6.204
 1539WAT     H1 5159   0.296   2.019   6.237
 1539WAT     H2 5160   0.302   1.862   6.281
 1540WAT      O 5161   1.622   2.229   5.960
 1540WAT     H1 5162   1.624   2.153   6.024
 1540WAT     H2 5163   1.574   2.306   6.000
 1541WAT      O 5164   1.023   2.628   6.552
 1541WAT     H1 5165   1.038   2.649   6.648
 1541WAT     H2 5166   0.993   2.533   6.543
 1542WAT      O 5167   1.859   3.380   7.191
 1542WAT     H1 5168   1.873   3.407   7.096
 1542WAT     H2 5169   1.942   3.402   7.244
 1543WAT      O 5170   1.540   2.136   5.711
 1543WAT     H1 5171   1.479   2.061   5.734
 1543WAT     H2 5172   1.562   2.188   5.794
 1544WAT      O 5173   1.303   2.700   5.628
 1544WAT     H1 5174   1.337   2.607   5.643
 1544WAT     H2 5175   1.321   2.727   5.533
 1545WAT      O 5176   1.068   3.195   6.435
 1545WAT     H1 5177   1.075   3.111   6.380
 1545WAT     H2 5178   1.130   3.264   6.399
 1546WAT      O 5179   0.319   2.672   6.535
 1546WAT     H1 5180   0.412   2.708   6.540
 1546WAT     H2 5181   0.313   2.587   6.587
 1547WAT      O 5182   0.339   2.371   6.592
 1547WAT     H1 5183   0.287   2.288   6.575
 1547WAT     H2 5184   0.416   2.376   6.528
 1548WAT      O 5185   1.160   2.069   7.063
 1548WAT     H1 5186   1.160   2.133   7.140
 1548WAT     H2 5187   1.188   2.117   6.980
 1549WAT      O 5188   0.008   3.188   5.786
 1549WAT     H1 5189  -0.085   3.209   5.755
 1549WAT     H2 5190   0.018   3.089   5.799
 1550WAT      O 5191   0.088   3.663   6.513
 1550WAT     H1 5192   0.046   3.577   6.486
 1550WAT     H2 5193   0.182   3.666   6.479
 1551WAT      O 5194   0.504   3.430   6.496
 1551WAT     H1 5195   0.570   3.504   6.505
 1551WAT     H2 5196   0.548   3.351   6.454
 1552WAT      O 5197   1.002   2.658   6.824
 1552WAT     H1 5198   1.043   2.626   6.910
 1552WAT     H2 5199   0.906   2.631   6.821
 1553WAT      O 5200   0.040   2.406   6.700
 1553WAT     H1 5201   0.125   2.373   6.659
 1553WAT     H2 5202   0.053   2.421   6.798
 1554WAT      O 5203   0.815   2.434   5.911
 1554WAT     H1 5204   0.822   2.345   5.865
 1554WAT     H2 5205   0.721   2.468   5.903
 1555WAT      O 5206   1.657   2.466   6.792
 1555WAT     H1 5207   1.619   2.397   6.854
 1555WAT     H2 5208   1.739   2.430   6.748
 1556WAT      O 5209   0.671   2.326   6.855
 1556WAT     H1 5210   0.637   2.237   6.825
 1556WAT     H2 5211   0.697   2.380   6.775
 1557WAT      O 5212   0.930   3.540   7.051
 1557WAT     H1 5213   0.906   3.522   6.956
 1557WAT     H2 5214   0.960   3.634   7.061
 1558WAT      O 5215   0.473   2.362   5.777
 1558WAT     H1 5216   0.534   2.442   5.781
 1558WAT     H2 5217   0.378   2.393   5.784
 1559WAT      O 5218   0.159   2.999   7.052
 1559WAT     H1 5219   0.181   2.938   7.128
 1559WAT     H2 5220   0.169   2.950   6.966
 1560WAT      O 5221   1.347   2.921   6.820
 1560WAT     H1 5222   1.371   2.858   6.746
 1560WAT     H2 5223   1.257   2.961   6.802
 1561WAT      O 5224   1.302   2.717   5.895
 1561WAT     H1 5225   1.216   2.686   5.937
 1561WAT     H2 5226   1.298   2.703   5.796
 1562WAT      O 5227   1.759   3.609   6.740
 1562WAT     H1 5228   1.820   3.639   6.667
 1562WAT     H2 5229   1.721   3.520   6.718
 1563WAT      O 5230   1.252   3.593   6.714
 1563WAT     H1 5231   1.336   3.598   6.660
 1563WAT     H2 5232   1.229   3.497   6.732
 1564WAT      O 5233   0.083   3.120   6.608
 1564WAT     H1 5234   0.078   3.119   6.708
 1564WAT     H2 5235   0.000   3.079   6.570
 1565WAT      O 5236   1.726   1.997   6.109
 1565WAT     H1 5237   1.799   1.980   6.042
 1565WAT     H2 5238   1.695   1.910   6.147
 1566WAT      O 5239   1.388   3.435   6.063
 1566WAT     H1 5240   1.455   3.447   5.989
 1566WAT     H2 5241   1.348   3.524   6.086
 1567WAT      O 5242   1.280   2.789   6.258
 1567WAT     H1 5243   1.340   2.708   6.260
 1567WAT     H2 5244   1.320   2.858   6.198
 1568WAT      O 5245   0.672   3.478   5.740
 1568WAT     H1 5246   0.681   3.488   5.641
 1568WAT     H2 5247   0.632   3.389   5.761
 1569WAT      O 5248   1.841   2.037   6.549
 1569WAT     H1 5249   1.880   1.952   6.513
 1569WAT     H2 5250   1.743   2.039   6.530
 1570WAT      O 5251   0.263   2.188   6.306
 1570WAT     H1 5252   0.184   2.239   6.272
 1570WAT     H2 5253   0.254   2.173   6.404
 1571WAT      O 5254   1.194   3.474   5.617
 1571WAT     H1 5255   1.200   3.381   5.654
 1571WAT     H2 5256   1.135   3.474   5.537
 1572WAT      O 5257   0.822   2.864   6.958
 1572WAT     H1 5258   0.862   2.863   6.866
 1572WAT     H2 5259   0.832   2.956   6.998
 1573WAT      O 5260   0.916   2.772   5.877
 1573WAT     H1 5261   0.979   2.810   5.809
 1573WAT     H2 5262   0.956   2.689   5.916
 1574WAT      O 5263   1.504   3.469   5.630
 1574WAT     H1 5264   1.412   3.506   5.637
 1574WAT     H2 5265   1.542   3.489   5.540
 1575WAT      O 5266   1.614   3.154   6.875
 1575WAT     H1 5267   1.674   3.157   6.955
 1575WAT     H2 5268   1.539   3.218   6.888
 1576WAT      O 5269   1.039   2.960   6.282
 1576WAT     H1 5270   0.969   2.913   6.336
 1576WAT     H2 5271   1.098   2.892   6.239
 1577WAT      O 5272   1.014   2.098   6.557
 1577WAT     H1 5273   1.006   2.062   6.464
 1577WAT     H2 5274   1.012   2.022   6.622
 1578WAT      O 5275   0.590   3.349   6.077
 1578WAT     H1 5276   0.632   3.291   6.007
 1578WAT     H2 5277   0.546   3.428   6.033
 1579WAT      O 5278   1.709   2.247   6.967
 1579WAT     H1 5279   1.782   2.316   6.971
 1579WAT     H2 5280   1.737   2.172   6.908
 1580WAT      O 5281   0.255   3.210   5.876
 1580WAT     H1 5282   0.159   3.211   5.849
 1580WAT     H2 5283   0.267   3.263   5.960
 1581WAT      O 5284   0.672   2.065   7.075
 1581WAT     H1 5285   0.762   2.049   7.035
 1581WAT     H2 5286   0.680   2.070   7.174
 1582WAT      O 5287   0.075   2.207   5.619
 1582WAT     H1 5288  -0.017   2.179   5.590
 1582WAT     H2 5289   0.106   2.284   5.563
 1583WAT      O 5290   0.072   2.028   5.904
 1583WAT     H1 5291   0.055   2.111   5.850
 1583WAT     H2 5292   0.162   1.991   5.882
 1584WAT      O 5293   1.183   3.197   5.705
 1584WAT     H1 5294   1.084   3.186   5.707
 1584WAT     H2 5295   1.217   3.212   5.798
 1585WAT      O 5296   1.493   3.629   6.545
 1585WAT     H1 5297   1.526   3.693   6.476
 1585WAT     H2 5298   1.559   3.623   6.620
 1586WAT      O 5299   1.450   3.082   7.219
 1586WAT     H1 5300   1.441   3.072   7.318
 1586WAT     H2 5301   1.546   3.075   7.193
 1587WAT      O 5302   0.390   3.603   7.146
 1587WAT     H1 5303   0.299   3.644   7.144
 1587WAT     H2 5304   0.383   3.509   7.178
 1588WAT      O 5305   1.674   2.745   6.840
 1588WAT     H1 5306   1.647   2.656   6.803
 1588WAT     H2 5307   1.675   2.813   6.767
 1589WAT      O 5308   1.225   2.187   6.035
 1589WAT     H1 5309   1.290   2.113   6.024
 1589WAT     H2 5310   1.245   2.237   6.119
 1590WAT      O 5311   0.594   2.607   6.238
 1590WAT     H1 5312   0.644   2.692   6.219
 1590WAT     H2 5313   0.506   2.609   6.190
 1591WAT      O 5314   1.730   2.796   7.103
 1591WAT     H1 5315   1.768   2.887   7.118
 1591WAT     H2 5316   1.722   2.779   7.004
 1592WAT      O 5317   0.859   3.236   5.602
 1592WAT     H1 5318   0.813   3.251   5.690
 1592WAT     H2 5319   0.903   3.321   5.572
 1593WAT      O 5320   0.661   3.652   6.539
 1593WAT     H1 5321   0.615   3.740   6.526
 1593WAT     H2 5322   0.760   3.664   6.532
 1594WAT      O 5323   0.859   2.818   6.447
 1594WAT     H1 5324   0.913   2.749   6.495
 1594WAT     H2 5325   0.827   2.887   6.513
 1595WAT      O 5326   1.083   2.846   5.673
 1595WAT     H1 5327   1.060   2.899   5.591
 1595WAT     H2 5328   1.164   2.790   5.654
 1596WAT      O 5329   1.861   3.431   6.437
 1596WAT     H1 5330   1.790   3.419   6.367
 1596WAT     H2 5331   1.862   3.352   6.497
 1597WAT      O 5332   0.079   3.102   6.239
 1597WAT     H1 5333   0.078   3.055   6.327
 1597WAT     H2 5334   0.161   3.074   6.188
 1598WAT      O 5335   1.824   2.054   6.813
 1598WAT     H1 5336   1.820   1.964   6.857
 1598WAT     H2 5337   1.827   2.043   6.714
 1599WAT      O 5338   0.428   2.286   6.106
 1599WAT     H1 5339   0.458   2.214   6.044
 1599WAT     H2 5340   0.389   2.246   6.189
 1600WAT      O 5341   1.705   3.349   6.690
 1600WAT     H1 5342   1.612   3.324   6.663
 1600WAT     H2 5343   1.731   3.299   6.772
 1601WAT      O 5344   0.317   2.409   6.866
 1601WAT     H1 5345   0.355   2.350   6.938
 1601WAT     H2 5346   0.357   2.383   6.778
 1602WAT      O 5347   0.812   3.448   6.273
 1602WAT     H1 5348   0.844   3.458   6.179
 1602WAT     H2 5349   0.733   3.386   6.275
 1603WAT      O 5350   1.424   2.076   6.698
 1603WAT     H1 5351   1.476   2.011   6.753
 1603WAT     H2 5352   1.375   2.139   6.759
 1604WAT      O 5353   1.001   1.896   6.740
 1604WAT     H1 5354   0.938   1.824   6.709
 1604WAT     H2 5355   1.094   1.860   6.740
 1605WAT      O 5356   0.770   3.192   5.887
 1605WAT     H1 5357   0.724   3.105   5.904
 1605WAT     H2 5358   0.861   3.189   5.928
 1606WAT      O 5359   0.618   3.429   6.870
 1606WAT     H1 5360   0.613   3.511   6.927
 1606WAT     H2 5361   0.707   3.426   6.825
 1607WAT      O 5362   1.352   1.914   5.754
 1607WAT     H1 5363   1.387   1.873   5.670
 1607WAT     H2 5364   1.262   1.876   5.774
 1608WAT      O 5365   1.300   2.315   6.277
 1608WAT     H1 5366   1.241   2.395   6.281
 1608WAT     H2 5367   1.315   2.280   6.370
 1609WAT      O 5368   1.593   2.083   6.468
 1609WAT     H1 5369   1.509   2.082   6.522
 1609WAT     H2 5370   1.595   2.166   6.412
 1610WAT      O 5371   0.039   2.939   5.886
 1610WAT     H1 5372   0.138   2.928   5.877
 1610WAT     H2 5373  -0.001   2.853   5.918
 1611WAT      O 5374   0.875   3.508   5.923
 1611WAT     H1 5375   0.798   3.473   5.869
 1611WAT     H2 5376   0.843   3.579   5.985
 1612WAT      O 5377   0.230   4.352   0.113
 1612WAT     H1 5378   0.137   4.350   0.150
 1612WAT     H2 5379   0.231   4.313   0.021
 1613WAT      O 5380   0.225   3.999   0.996
 1613WAT     H1 5381   0.260   3.982   1.088
 1613WAT     H2 5382   0.137   3.954   0.984
 1614WAT      O 5383   0.019   4.092   0.647
 1614WAT     H1 5384  -0.063   4.135   0.686
 1614WAT     H2 5385  -0.009   4.019   0.584
 1615WAT      O 5386   0.569   4.999   1.165
 1615WAT     H1 5387   0.476   4.992   1.128
 1615WAT     H2 5388   0.580   5.088   1.209
 1616WAT      O 5389   1.555   5.235   0.703
 1616WAT     H1 5390   1.498   5.219   0.784
 1616WAT     H2 5391   1.496   5.245   0.623
 1617WAT      O 5392   1.135   4.427   0.717
 1617WAT     H1 5393   1.192   4.505   0.692
 1617WAT     H2 5394   1.075   4.453   0.793
 1618WAT      O 5395   1.755   4.331   0.231
 1618WAT     H1 5396   1.743   4.318   0.132
 1618WAT     H2 5397   1.725   4.250   0.280
 1619WAT      O 5398   0.768   4.868   1.023
 1619WAT     H1 5399   0.690   4.885   1.083
 1619WAT     H2 5400   0.802   4.955   0.987
 1620WAT      O 5401   0.850   4.522   1.823
 1620WAT     H1 5402   0.846   4.598   1.888
 1620WAT     H2 5403   0.872   4.558   1.732
 1621WAT      O 5404   0.685   4.736   0.665
 1621WAT     H1 5405   0.754   4.720   0.735
 1621WAT     H2 5406   0.612   4.793   0.703
 1622WAT      O 5407   0.686   4.885   1.803
 1622WAT     H1 5408   0.746   4.964   1.817
 1622WAT     H2 5409   0.600   4.916   1.762
 1623WAT      O 5410   0.335   5.159   1.061
 1623WAT     H1 5411   0.257   5.128   1.008
 1623WAT     H2 5412   0.393   5.217   1.004
 1624WAT      O 5413   1.460   5.229   1.339
 1624WAT     H1 5414   1.484   5.323   1.365
 1624WAT     H2 5415   1.444   5.175   1.421
 1625WAT      O 5416   0.438   4.116   1.499
 1625WAT     H1 5417   0.520   4.060   1.508
 1625WAT     H2 5418   0.357   4.058   1.503
 1626WAT      O 5419   1.603   4.171   0.737
 1626WAT     H1 5420   1.529   4.217   0.687
 1626WAT     H2 5421   1.654   4.239   0.790
 1627WAT      O 5422   0.231   5.437   0.483
 1627WAT     H1 5423   0.265   5.514   0.537
 1627WAT     H2 5424   0.275   5.437   0.393
 1628WAT      O 5425   1.127   5.065   1.690
 1628WAT     H1 5426   1.174   5.065   1.778
 1628WAT     H2 5427   1.079   4.978   1.679
 1629WAT      O 5428   0.230   5.158   0.538
 1629WAT     H1 5429   0.204   5.254   0.538
 1629WAT     H2 5430   0.159   5.104   0.583
 1630WAT      O 5431   0.240   4.815   0.886
 1630WAT     H1 5432   0.254   4.731   0.938
 1630WAT     H2 5433   0.185   4.879   0.941
 1631WAT      O 5434   0.620   5.510   1.439
 1631WAT     H1 5435   0.528   5.493   1.474
 1631WAT     H2 5436   0.648   5.602   1.465
 1632WAT      O 5437   0.606   4.688   0.123
 1632WAT     H1 5438   0.613   4.772   0.069
 1632WAT     H2 5439   0.652   4.701   0.211
 1633WAT      O 5440   1.594   3.838   1.480
 1633WAT     H1 5441   1.576   3.905   1.408
 1633WAT     H2 5442   1.591   3.884   1.569
 1634WAT      O 5443   0.122   4.367   0.563
 1634WAT     H1 5444   0.077   4.279   0.580
 1634WAT     H2 5445   0.121   4.421   0.647
 1635WAT      O 5446   1.842   5.491   0.359
 1635WAT     H1 5447   1.896   5.462   0.439
 1635WAT     H2 5448   1.872   5.581   0.330
 1636WAT      O 5449   0.027   5.320   0.117
 1636WAT     H1 5450   0.008   5.224   0.138
 1636WAT     H2 5451  -0.006   5.378   0.192
 1637WAT      O 5452   1.689   4.646   0.612
 1637WAT     H1 5453   1.784   4.617   0.620
 1637WAT     H2 5454   1.681   4.711   0.537
 1638WAT      O 5455   1.641   4.832   0.432
 1638WAT     H1 5456   1.727   4.834   0.380
 1638WAT     H2 5457   1.655   4.879   0.520
 1639WAT      O 5458   0.113   4.461   1.597
 1639WAT     H1 5459   0.201   4.448   1.642
 1639WAT     H2 5460   0.100   4.558   1.575
 1640WAT      O 5461   0.613   5.089   0.726
 1640WAT     H1 5462   0.564   5.002   0.735
 1640WAT     H2 5463   0.590   5.132   0.639
 1641WAT      O 5464   1.293   4.952   1.423
 1641WAT     H1 5465   1.330   4.879   1.365
 1641WAT     H2 5466   1.345   4.957   1.508
 1642WAT      O 5467   0.809   3.728   0.502
 1642WAT     H1 5468   0.849   3.819   0.493
 1642WAT     H2 5469   0.709   3.736   0.508
 1643WAT      O 5470   0.197   4.700   1.264
 1643WAT     H1 5471   0.286   4.655   1.250
 1643WAT     H2 5472   0.124   4.635   1.245
 1644WAT      O 5473   1.525   4.723   0.190
 1644WAT     H1 5474   1.462   4.647   0.203
 1644WAT     H2 5475   1.573   4.741   0.276
 1645WAT      O 5476   1.187   5.516   1.616
 1645WAT     H1 5477   1.211   5.576   1.540
 1645WAT     H2 5478   1.194   5.421   1.586
 1646WAT      O 5479   0.317   3.975   1.801
 1646WAT     H1 5480   0.388   4.046   1.807
 1646WAT     H2 5481   0.229   4.014   1.829
 1647WAT      O 5482   1.466   5.141   0.953
 1647WAT     H1 5483   1.407   5.147   1.033
 1647WAT     H2 5484   1.451   5.053   0.907
 1648WAT      O 5485   1.667   5.438   0.572
 1648WAT     H1 5486   1.626   5.415   0.484
 1648WAT     H2 5487   1.649   5.364   0.637
 1649WAT      O 5488   0.598   4.453   0.270
 1649WAT     H1 5489   0.622   4.522   0.202
 1649WAT     H2 5490   0.520   4.486   0.324
 1650WAT      O 5491   1.281   4.069   0.944
 1650WAT     H1 5492   1.195   4.019   0.931
 1650WAT     H2 5493   1.343   4.015   1.000
 1651WAT      O 5494   1.576   5.386   0.307
 1651WAT     H1 5495   1.665   5.432   0.310
 1651WAT     H2 5496   1.555   5.362   0.212
 1652WAT      O 5497   0.807   4.329   1.465
 1652WAT     H1 5498   0.760   4.326   1.554
 1652WAT     H2 5499   0.756   4.274   1.399
 1653WAT      O 5500   1.394   4.193   1.674
 1653WAT     H1 5501   1.374   4.236   1.762
 1653WAT     H2 5502   1.472   4.131   1.683
 1654WAT      O 5503   0.973   4.614   1.572
 1654WAT     H1 5504   1.019   4.530   1.543
 1654WAT     H2 5505   0.917   4.648   1.497
 1655WAT      O 5506   0.991   4.134   1.242
 1655WAT     H1 5507   0.914   4.168   1.296
 1655WAT     H2 5508   0.957   4.083   1.163
 1656WAT      O 5509   1.041   4.425   0.429
 1656WAT     H1 5510   1.067   4.421   0.525
 1656WAT     H2 5511   0.956   4.374   0.415
 1657WAT      O 5512   0.076   4.535   0.789
 1657WAT     H1 5513   0.175   4.523   0.798
 1657WAT     H2 5514   0.052   4.630   0.810
 1658WAT      O 5515   0.130   5.545   1.571
 1658WAT     H1 5516   0.120   5.530   1.670
 1658WAT     H2 5517   0.044   5.581   1.535
 1659WAT      O 5518   0.865   4.072   0.195
 1659WAT     H1 5519   0.924   4.135   0.146
 1659WAT     H2 5520   0.884   3.978   0.166
 1660WAT      O 5521   1.719   4.309   1.831
 1660WAT     H1 5522   1.693   4.398   1.795
 1660WAT     H2 5523   1.717   4.241   1.758
 1661WAT      O 5524   1.362   4.868   0.545
 1661WAT     H1 5525   1.445   4.839   0.497
 1661WAT     H2 5526   1.313   4.935   0.489
 1662WAT      O 5527   0.550   3.920   0.885
 1662WAT     H1 5528   0.545   3.915   0.985
 1662WAT     H2 5529   0.552   4.016   0.856
 1663WAT      O 5530   1.008   5.180   0.477
 1663WAT     H1 5531   0.962   5.252   0.425
 1663WAT     H2 5532   1.004   5.200   0.575
 1664WAT      O 5533   0.351   5.525   0.853
 1664WAT     H1 5534   0.401   5.439   0.859
 1664WAT     H2 5535   0.416   5.602   0.850
 1665WAT      O 5536   1.795   4.790   0.873
 1665WAT     H1 5537   1.733   4.775   0.797
 1665WAT     H2 5538   1.743   4.801   0.958
 1666WAT      O 5539   1.227   5.274   1.506
 1666WAT     H1 5540   1.233   5.197   1.570
 1666WAT     H2 5541   1.175   5.248   1.426
 1667WAT      O 5542   0.321   4.667   0.242
 1667WAT     H1 5543   0.403   4.706   0.200
 1667WAT     H2 5544   0.294   4.585   0.193
 1668WAT      O 5545   1.458   4.459   0.728
 1668WAT     H1 5546   1.453   4.394   0.803
 1668WAT     H2 5547   1.538   4.518   0.741
 1669WAT      O 5548   0.461   4.990   1.727
 1669WAT     H1 5549   0.411   4.991   1.641
 1669WAT     H2 5550   0.398   4.972   1.803
 1670WAT      O 5551   1.111   5.500   0.237
 1670WAT     H1 5552   1.051   5.438   0.287
 1670WAT     H2 5553   1.142   5.456   0.152
 1671WAT      O 5554   0.202   4.009   1.498
 1671WAT     H1 5555   0.122   4.069   1.485
 1671WAT     H2 5556   0.192   3.960   1.584
 1672WAT      O 5557   1.632   5.101   0.081
 1672WAT     H1 5558   1.600   5.195   0.071
 1672WAT     H2 5559   1.556   5.038   0.069
 1673WAT      O 5560   0.464   5.467   0.323
 1673WAT     H1 5561   0.497   5.506   0.409
 1673WAT     H2 5562   0.540   5.460   0.258
 1674WAT      O 5563   1.400   3.831   0.426
 1674WAT     H1 5564   1.376   3.794   0.336
 1674WAT     H2 5565   1.499   3.847   0.430
 1675WAT      O 5566   0.249   5.509   1.241
 1675WAT     H1 5567   0.306   5.444   1.291
 1675WAT     H2 5568   0.233   5.476   1.148
 1676WAT      O 5569   0.940   5.422   0.904
 1676WAT     H1 5570   1.020   5.365   0.925
 1676WAT     H2 5571   0.891   5.382   0.827
 1677WAT      O 5572   0.382   4.424   0.480
 1677WAT     H1 5573   0.427   4.334   0.477
 1677WAT     H2 5574   0.288   4.413   0.513
 1678WAT      O 5575   1.547   3.946   1.729
 1678WAT     H1 5576   1.542   3.983   1.821
 1678WAT     H2 5577   1.475   3.877   1.717
 1679WAT      O 5578   0.781   3.988   1.749
 1679WAT     H1 5579   0.848   3.927   1.792
 1679WAT     H2 5580   0.708   4.007   1.814
 1680WAT      O 5581   0.888   5.238   1.195
 1680WAT     H1 5582   0.865   5.213   1.101
 1680WAT     H2 5583   0.949   5.169   1.234
 1681WAT      O 5584   1.351   4.314   1.433
 1681WAT     H1 5585   1.379   4.271   1.518
 1681WAT     H2 5586   1.376   4.410   1.434
 1682WAT      O 5587   0.803   5.126   0.924
 1682WAT     H1 5588   0.893   5.140   0.882
 1682WAT     H2 5589   0.732   5.128   0.853
 1683WAT      O 5590   0.922   4.227   0.899
 1683WAT     H1 5591   0.897   4.218   0.803
 1683WAT     H2 5592   0.970   4.145   0.930
 1684WAT      O 5593   0.539   3.788   0.512
 1684WAT     H1 5594   0.458   3.789   0.570
 1684WAT     H2 5595   0.542   3.871   0.457
 1685WAT      O 5596   1.434   4.912   0.041
 1685WAT     H1 5597   1.466   4.836   0.098
 1685WAT     H2 5598   1.342   4.939   0.071
 1686WAT      O 5599   0.935   3.960   0.480
 1686WAT     H1 5600   0.887   4.001   0.402
 1686WAT     H2 5601   1.034   3.958   0.461
 1687WAT      O 5602   1.076   4.407   1.464
 1687WAT     H1 5603   0.996   4.346   1.467
 1687WAT     H2 5604   1.157   4.354   1.440
 1688WAT      O 5605   1.227   5.294   0.793
 1688WAT     H1 5606   1.248   5.368   0.728
 1688WAT     H2 5607   1.295   5.294   0.866
 1689WAT      O 5608   0.459   4.876   0.741
 1689WAT     H1 5609   0.388   4.849   0.806
 1689WAT     H2 5610   0.433   4.848   0.648
 1690WAT      O 5611   1.271   5.521   0.591
 1690WAT     H1 5612   1.315   5.585   0.527
 1690WAT     H2 5613   1.221   5.573   0.661
 1691WAT      O 5614   1.032   4.273   0.016
 1691WAT     H1 5615   0.991   4.355  -0.023
 1691WAT     H2 5616   1.096   4.299   0.089
 1692WAT      O 5617   0.078   4.280   1.386
 1692WAT     H1 5618   0.170   4.279   1.345
 1692WAT     H2 5619   0.072   4.354   1.453
 1693WAT      O 5620   0.561   3.946   1.147
 1693WAT     H1 5621   0.599   3.862   1.184
 1693WAT     H2 5622   0.473   3.965   1.191
 1694WAT      O 5623   0.866   4.178   0.642
 1694WAT     H1 5624   0.834   4.250   0.580
 1694WAT     H2 5625   0.890   4.097   0.589
 1695WAT      O 5626   1.017   3.763   0.753
 1695WAT     H1 5627   0.945   3.768   0.684
 1695WAT     H2 5628   0.993   3.694   0.822
 1696WAT      O 5629   1.429   4.897   0.867
 1696WAT     H1 5630   1.374   4.813   0.860
 1696WAT     H2 5631   1.455   4.926   0.775
 1697WAT      O 5632   1.466   4.314   0.992
 1697WAT     H1 5633   1.436   4.219   0.999
 1697WAT     H2 5634   1.539   4.330   1.058
 1698WAT      O 5635   1.857   4.557   0.377
 1698WAT     H1 5636   1.899   4.493   0.441
 1698WAT     H2 5637   1.819   4.506   0.299
 1699WAT      O 5638   0.488   5.109   0.174
 1699WAT     H1 5639   0.401   5.094   0.221
 1699WAT     H2 5640   0.471   5.135   0.079
 1700WAT      O 5641   1.664   5.004   0.657
 1700WAT     H1 5642   1.763   5.012   0.671
 1700WAT     H2 5643   1.619   5.088   0.688
 1701WAT      O 5644   1.390   4.299   0.078
 1701WAT     H1 5645   1.336   4.278   0.159
 1701WAT     H2 5646   1.481   4.258   0.087
 1702WAT      O 5647   0.527   3.980   0.328
 1702WAT     H1 5648   0.554   3.921   0.253
 1702WAT     H2 5649   0.527   4.075   0.297
 1703WAT      O 5650   1.754   4.947   1.588
 1703WAT     H1 5651   1.845   4.908   1.575
 1703WAT     H2 5652   1.762   5.043   1.612
 1704WAT      O 5653   1.064   5.071   1.340
 1704WAT     H1 5654   0.984   5.048   1.395
 1704WAT     H2 5655   1.147   5.045   1.389
 1705WAT      O 5656   1.592   5.353   1.625
 1705WAT     H1 5657   1.619   5.387   1.535
 1705WAT     H2 5658   1.671   5.315   1.671
 1706WAT      O 5659   1.111   4.919   1.100
 1706WAT     H1 5660   1.071   4.963   1.181
 1706WAT     H2 5661   1.070   4.956   1.017
 1707WAT      O 5662   1.638   4.823   1.079
 1707WAT     H1 5663   1.643   4.904   1.138
 1707WAT     H2 5664   1.552   4.825   1.028
 1708WAT      O 5665   0.915   3.813   1.402
 1708WAT     H1 5666   0.940   3.793   1.307
 1708WAT     H2 5667   0.987   3.869   1.444
 1709WAT      O 5668   0.980   4.840   1.719
 1709WAT     H1 5669   0.881   4.846   1.729
 1709WAT     H2 5670   1.003   4.760   1.663
 1710WAT      O 5671   0.705   4.774   0.368
 1710WAT     H1 5672   0.691   4.781   0.467
 1710WAT     H2 5673   0.789   4.723   0.350
 1711WAT      O 5674   0.410   4.537   1.251
 1711WAT     H1 5675   0.496   4.549   1.301
 1711WAT     H2 5676   0.368   4.450   1.278
 1712WAT      O 5677   1.274   4.110   1.262
 1712WAT     H1 5678   1.295   4.184   1.326
 1712WAT     H2 5679   1.185   4.127   1.219
 1713WAT      O 5680   0.064   5.288   1.331
 1713WAT     H1 5681   0.018   5.370   1.297
 1713WAT     H2 5682   0.162   5.307   1.340
 1714WAT      O 5683   0.367   4.824   0.501
 1714WAT     H1 5684   0.360   4.907   0.445
 1714WAT     H2 5685   0.371   4.744   0.441
 1715WAT      O 5686   0.566   4.261   0.865
 1715WAT     H1 5687   0.578   4.327   0.791
 1715WAT     H2 5688   0.612   4.295   0.948
 1716WAT      O 5689   1.252   5.072   0.388
 1716WAT     H1 5690   1.302   5.149   0.428
 1716WAT     H2 5691   1.157   5.074   0.420
 1717WAT      O 5692   1.272   5.169   1.142
 1717WAT     H1 5693   1.319   5.182   1.229
 1717WAT     H2 5694   1.206   5.095   1.151
 1718WAT      O 5695   1.582   4.363   0.472
 1718WAT     H1 5696   1.551   4.424   0.545
 1718WAT     H2 5697   1.632   4.415   0.403
 1719WAT      O 5698   0.354   5.234   1.329
 1719WAT     H1 5699   0.333   5.190   1.242
 1719WAT     H2 5700   0.451   5.260   1.332
 1720WAT      O 5701   0.402   4.475   1.598
 1720WAT     H1 5702   0.470   4.530   1.551
 1720WAT     H2 5703   0.442   4.387   1.625
 1721WAT      O 5704   1.587   4.503   1.670
 1721WAT     H1 5705   1.495   4.541   1.665
 1721WAT     H2 5706   1.647   4.550   1.605
 1722WAT      O 5707   1.013   3.829   1.770
 1722WAT     H1 5708   1.019   3.914   1.718
 1722WAT     H2 5709   1.045   3.753   1.713
 1723WAT      O 5710   0.504   3.774   1.740
 1723WAT     H1 5711   0.462   3.717   1.670
 1723WAT     H2 5712   0.438   3.843   1.772
 1724WAT      O 5713   0.573   4.594   1.029
 1724WAT     H1 5714   0.617   4.683   1.020
 1724WAT     H2 5715   0.510   4.594   1.106
 1725WAT      O 5716   1.360   4.586   1.045
 1725WAT     H1 5717   1.285   4.586   0.979
 1725WAT     H2 5718   1.397   4.494   1.054
 1726WAT      O 5719   1.209   4.249   0.275
 1726WAT     H1 5720   1.222   4.165   0.329
 1726WAT     H2 5721   1.180   4.323   0.335
 1727WAT      O 5722   0.307   3.937   1.231
 1727WAT     H1 5723   0.284   3.974   1.321
 1727WAT     H2 5724   0.277   3.842   1.225
 1728WAT      O 5725   0.037   5.034   1.282
 1728WAT     H1 5726   0.090   4.985   1.350
 1728WAT     H2 5727   0.059   5.132   1.287
 1729WAT      O 5728   0.732   4.358   1.064
 1729WAT     H1 5729   0.791   4.332   0.988
 1729WAT     H2 5730   0.704   4.454   1.053
 1730WAT      O 5731   1.728   4.659   1.854
 1730WAT     H1 5732   1.682   4.652   1.765
 1730WAT     H2 5733   1.666   4.703   1.920
 1731WAT      O 5734   0.307   3.787   0.618
 1731WAT     H1 5735   0.296   3.881   0.651
 1731WAT     H2 5736   0.302   3.724   0.695
 1732WAT      O 5737   1.622   4.091   0.374
 1732WAT     H1 5738   1.624   4.015   0.438
 1732WAT     H2 5739   1.574   4.168   0.414
 1733WAT      O 5740   1.023   4.490   0.966
 1733WAT     H1 5741   1.038   4.511   1.062
 1733WAT     H2 5742   0.993   4.395   0.957
 1734WAT      O 5743   0.980   5.297   1.700
 1734WAT     H1 5744   0.960   5.341   1.612
 1734WAT     H2 5745   1.019   5.206   1.684
 1735WAT      O 5746   1.859   5.242   1.605
 1735WAT     H1 5747   1.873   5.269   1.510
 1735WAT     H2 5748   1.942   5.264   1.658
 1736WAT      O 5749   0.350   4.622   1.804
 1736WAT     H1 5750   0.426   4.666   1.852
 1736WAT     H2 5751   0.385   4.575   1.722
 1737WAT      O 5752   1.540   3.998   0.125
 1737WAT     H1 5753   1.479   3.923   0.148
 1737WAT     H2 5754   1.562   4.050   0.208
 1738WAT      O 5755   1.303   4.562   0.042
 1738WAT     H1 5756   1.337   4.469   0.057
 1738WAT     H2 5757   1.321   4.589  -0.053
 1739WAT      O 5758   1.068   5.057   0.849
 1739WAT     H1 5759   1.075   4.973   0.794
 1739WAT     H2 5760   1.130   5.126   0.813
 1740WAT      O 5761   0.319   4.534   0.949
 1740WAT     H1 5762   0.412   4.570   0.954
 1740WAT     H2 5763   0.313   4.449   1.001
 1741WAT      O 5764   0.339   4.233   1.006
 1741WAT     H1 5765   0.287   4.150   0.989
 1741WAT     H2 5766   0.416   4.238   0.942
 1742WAT      O 5767   1.138   4.104   1.678
 1742WAT     H1 5768   1.093   4.167   1.742
 1742WAT     H2 5769   1.231   4.135   1.661
 1743WAT      O 5770   1.160   3.931   1.477
 1743WAT     H1 5771   1.160   3.995   1.554
 1743WAT     H2 5772   1.188   3.979   1.394
 1744WAT      O 5773   0.008   5.050   0.200
 1744WAT     H1 5774  -0.085   5.071   0.169
 1744WAT     H2 5775   0.018   4.951   0.213
 1745WAT      O 5776   0.088   5.525   0.927
 1745WAT     H1 5777   0.046   5.439   0.900
 1745WAT     H2 5778   0.182   5.528   0.893
 1746WAT      O 5779   0.504   5.292   0.910
 1746WAT     H1 5780   0.570   5.366   0.919
 1746WAT     H2 5781   0.548   5.213   0.868
 1747WAT      O 5782   1.002   4.520   1.238
 1747WAT     H1 5783   1.043   4.488   1.324
 1747WAT     H2 5784   0.906   4.493   1.235
 1748WAT      O 5785   0.040   4.268   1.114
 1748WAT     H1 5786   0.125   4.235   1.073
 1748WAT     H2 5787   0.053   4.283   1.212
 1749WAT      O 5788   0.189   4.244   1.722
 1749WAT     H1 5789   0.248   4.204   1.652
 1749WAT     H2 5790   0.131   4.315   1.681
 1750WAT      O 5791   1.369   4.674   1.660
 1750WAT     H1 5792   1.408   4.763   1.680
 1750WAT     H2 5793   1.379   4.654   1.563
 1751WAT      O 5794   0.815   4.296   0.325
 1751WAT     H1 5795   0.822   4.207   0.279
 1751WAT     H2 5796   0.721   4.330   0.317
 1752WAT      O 5797   1.657   4.328   1.206
 1752WAT     H1 5798   1.619   4.259   1.268
 1752WAT     H2 5799   1.739   4.292   1.162
 1753WAT      O 5800   0.252   5.288   1.744
 1753WAT     H1 5801   0.222   5.345   1.820
 1753WAT     H2 5802   0.245   5.191   1.770
 1754WAT      O 5803   0.671   4.188   1.269
 1754WAT     H1 5804   0.637   4.099   1.239
 1754WAT     H2 5805   0.697   4.242   1.189
 1755WAT      O 5806   0.930   5.402   1.465
 1755WAT     H1 5807   0.906   5.384   1.370
 1755WAT     H2 5808   0.960   5.496   1.475
 1756WAT      O 5809   0.473   4.224   0.191
 1756WAT     H1 5810   0.534   4.304   0.195
 1756WAT     H2 5811   0.378   4.255   0.198
 1757WAT      O 5812   0.159   4.861   1.466
 1757WAT     H1 5813   0.181   4.800   1.542
 1757WAT     H2 5814   0.169   4.812   1.380
 1758WAT      O 5815   1.347   4.783   1.234
 1758WAT     H1 5816   1.371   4.720   1.160
 1758WAT     H2 5817   1.257   4.823   1.216
 1759WAT      O 5818   1.302   4.579   0.309
 1759WAT     H1 5819   1.216   4.548   0.351
 1759WAT     H2 5820   1.298   4.565   0.210
 1760WAT      O 5821   1.759   5.471   1.154
 1760WAT     H1 5822   1.820   5.501   1.081
 1760WAT     H2 5823   1.721   5.382   1.132
 1761WAT      O 5824   1.252   5.455   1.128
 1761WAT     H1 5825   1.336   5.460   1.074
 1761WAT     H2 5826   1.229   5.359   1.146
 1762WAT      O 5827   0.083   4.982   1.022
 1762WAT     H1 5828   0.078   4.981   1.122
 1762WAT     H2 5829   0.000   4.941   0.984
 1763WAT      O 5830   0.688   5.386   1.716
 1763WAT     H1 5831   0.632   5.467   1.725
 1763WAT     H2 5832   0.740   5.390   1.630
 1764WAT      O 5833   0.903   3.810   0.133
 1764WAT     H1 5834   0.954   3.811   0.047
 1764WAT     H2 5835   0.959   3.768   0.204
 1765WAT      O 5836   1.726   3.859   0.523
 1765WAT     H1 5837   1.799   3.842   0.456
 1765WAT     H2 5838   1.695   3.772   0.561
 1766WAT      O 5839   1.388   5.297   0.477
 1766WAT     H1 5840   1.455   5.309   0.403
 1766WAT     H2 5841   1.348   5.386   0.500
 1767WAT      O 5842   0.130   5.518   1.851
 1767WAT     H1 5843   0.089   5.444   1.904
 1767WAT     H2 5844   0.194   5.569   1.909
 1768WAT      O 5845   1.280   4.651   0.672
 1768WAT     H1 5846   1.340   4.570   0.674
 1768WAT     H2 5847   1.320   4.720   0.612
 1769WAT      O 5848   0.830   4.997   1.422
 1769WAT     H1 5849   0.825   5.030   1.517
 1769WAT     H2 5850   0.744   5.016   1.376
 1770WAT      O 5851   0.672   5.340   0.154
 1770WAT     H1 5852   0.681   5.350   0.055
 1770WAT     H2 5853   0.632   5.251   0.175
 1771WAT      O 5854   1.650   5.444   1.394
 1771WAT     H1 5855   1.703   5.454   1.310
 1771WAT     H2 5856   1.623   5.534   1.428
 1772WAT      O 5857   1.841   3.899   0.963
 1772WAT     H1 5858   1.880   3.814   0.927
 1772WAT     H2 5859   1.743   3.901   0.944
 1773WAT      O 5860   0.263   4.050   0.720
 1773WAT     H1 5861   0.184   4.101   0.686
 1773WAT     H2 5862   0.254   4.035   0.818
 1774WAT      O 5863   1.194   5.336   0.031
 1774WAT     H1 5864   1.200   5.243   0.068
 1774WAT     H2 5865   1.135   5.336  -0.049
 1775WAT      O 5866   0.822   4.726   1.372
 1775WAT     H1 5867   0.862   4.725   1.280
 1775WAT     H2 5868   0.832   4.818   1.412
 1776WAT      O 5869   0.916   4.634   0.291
 1776WAT     H1 5870   0.979   4.672   0.223
 1776WAT     H2 5871   0.956   4.551   0.330
 1777WAT      O 5872   1.504   5.331   0.044
 1777WAT     H1 5873   1.412   5.368   0.051
 1777WAT     H2 5874   1.542   5.351  -0.046
 1778WAT      O 5875   0.372   5.012   1.490
 1778WAT     H1 5876   0.359   5.105   1.456
 1778WAT     H2 5877   0.288   4.960   1.477
 1779WAT      O 5878   1.614   5.016   1.289
 1779WAT     H1 5879   1.674   5.019   1.369
 1779WAT     H2 5880   1.539   5.080   1.302
 1780WAT      O 5881   1.039   4.822   0.696
 1780WAT     H1 5882   0.969   4.775   0.750
 1780WAT     H2 5883   1.098   4.754   0.653
 1781WAT      O 5884   1.014   3.960   0.971
 1781WAT     H1 5885   1.006   3.924   0.878
 1781WAT     H2 5886   1.012   3.884   1.036
 1782WAT      O 5887   0.590   5.211   0.491
 1782WAT     H1 5888   0.632   5.153   0.421
 1782WAT     H2 5889   0.546   5.290   0.447
 1783WAT      O 5890   1.709   4.109   1.381
 1783WAT     H1 5891   1.782   4.178   1.385
 1783WAT     H2 5892   1.737   4.034   1.322
 1784WAT      O 5893   0.255   5.072   0.290
 1784WAT     H1 5894   0.159   5.073   0.263
 1784WAT     H2 5895   0.267   5.125   0.374
 1785WAT      O 5896   0.105   4.737   1.726
 1785WAT     H1 5897   0.028   4.704   1.780
 1785WAT     H2 5898   0.190   4.707   1.768
 1786WAT      O 5899   0.672   3.927   1.489
 1786WAT     H1 5900   0.762   3.911   1.449
 1786WAT     H2 5901   0.680   3.932   1.588
 1787WAT      O 5902   0.075   4.069   0.033
 1787WAT     H1 5903  -0.017   4.041   0.004
 1787WAT     H2 5904   0.106   4.146  -0.023
 1788WAT      O 5905   1.440   4.580   1.398
 1788WAT     H1 5906   1.383   4.632   1.335
 1788WAT     H2 5907   1.536   4.592   1.374
 1789WAT      O 5908   0.072   3.890   0.318
 1789WAT     H1 5909   0.055   3.973   0.264
 1789WAT     H2 5910   0.162   3.853   0.296
 1790WAT      O 5911   1.183   5.059   0.119
 1790WAT     H1 5912   1.084   5.048   0.121
 1790WAT     H2 5913   1.217   5.074   0.212
 1791WAT      O 5914   0.613   4.566   1.431
 1791WAT     H1 5915   0.669   4.647   1.414
 1791WAT     H2 5916   0.672   4.486   1.434
 1792WAT      O 5917   1.493   5.491   0.959
 1792WAT     H1 5918   1.526   5.555   0.890
 1792WAT     H2 5919   1.559   5.485   1.034
 1793WAT      O 5920   0.716   4.289   1.708
 1793WAT     H1 5921   0.735   4.354   1.782
 1793WAT     H2 5922   0.776   4.209   1.717
 1794WAT      O 5923   1.450   4.944   1.633
 1794WAT     H1 5924   1.441   4.934   1.732
 1794WAT     H2 5925   1.546   4.937   1.607
 1795WAT      O 5926   0.390   5.465   1.560
 1795WAT     H1 5927   0.299   5.506   1.558
 1795WAT     H2 5928   0.383   5.371   1.592
 1796WAT      O 5929   1.674   4.607   1.254
 1796WAT     H1 5930   1.647   4.518   1.217
 1796WAT     H2 5931   1.675   4.675   1.181
 1797WAT      O 5932   1.225   4.049   0.449
 1797WAT     H1 5933   1.290   3.975   0.438
 1797WAT     H2 5934   1.245   4.099   0.533
 1798WAT      O 5935   0.594   4.469   0.652
 1798WAT     H1 5936   0.644   4.554   0.633
 1798WAT     H2 5937   0.506   4.471   0.604
 1799WAT      O 5938   1.777   4.066   1.642
 1799WAT     H1 5939   1.760   4.097   1.548
 1799WAT     H2 5940   1.693   4.029   1.680
 1800WAT      O 5941   1.730   4.658   1.517
 1800WAT     H1 5942   1.768   4.749   1.532
 1800WAT     H2 5943   1.722   4.641   1.418
 1801WAT      O 5944   0.859   5.098   0.016
 1801WAT     H1 5945   0.813   5.113   0.104
 1801WAT     H2 5946   0.903   5.183  -0.014
 1802WAT      O 5947   0.661   5.514   0.953
 1802WAT     H1 5948   0.615   5.602   0.940
 1802WAT     H2 5949   0.760   5.526   0.946
 1803WAT      O 5950   0.859   4.680   0.861
 1803WAT     H1 5951   0.913   4.611   0.909
 1803WAT     H2 5952   0.827   4.749   0.927
 1804WAT      O 5953   1.083   4.708   0.087
 1804WAT     H1 5954   1.060   4.761   0.005
 1804WAT     H2 5955   1.164   4.652   0.068
 1805WAT      O 5956   1.861   5.293   0.851
 1805WAT     H1 5957   1.790   5.281   0.781
 1805WAT     H2 5958   1.862   5.214   0.911
 1806WAT      O 5959   0.221   5.038   1.844
 1806WAT     H1 5960   0.156   4.965   1.823
 1806WAT     H2 5961   0.225   5.052   1.942
 1807WAT      O 5962   0.079   4.964   0.653
 1807WAT     H1 5963   0.078   4.917   0.741
 1807WAT     H2 5964   0.161   4.936   0.602
 1808WAT      O 5965   0.672   5.115   1.624
 1808WAT     H1 5966   0.594   5.065   1.662
 1808WAT     H2 5967   0.669   5.210   1.655
 1809WAT      O 5968   1.824   3.916   1.227
 1809WAT     H1 5969   1.820   3.826   1.271
 1809WAT     H2 5970   1.827   3.905   1.128
 1810WAT      O 5971   0.428   4.148   0.520
 1810WAT     H1 5972   0.458   4.076   0.458
 1810WAT     H2 5973   0.389   4.108   0.603
 1811WAT      O 5974   1.705   5.211   1.104
 1811WAT     H1 5975   1.612   5.186   1.077
 1811WAT     H2 5976   1.731   5.161   1.186
 1812WAT      O 5977   0.317   4.271   1.280
 1812WAT     H1 5978   0.355   4.212   1.352
 1812WAT     H2 5979   0.357   4.245   1.192
 1813WAT      O 5980   0.812   5.310   0.687
 1813WAT     H1 5981   0.844   5.320   0.593
 1813WAT     H2 5982   0.733   5.248   0.689
 1814WAT      O 5983   1.424   3.938   1.112
 1814WAT     H1 5984   1.476   3.873   1.167
 1814WAT     H2 5985   1.375   4.001   1.173
 1815WAT      O 5986   1.001   3.758   1.154
 1815WAT     H1 5987   0.938   3.686   1.123
 1815WAT     H2 5988   1.094   3.722   1.154
 1816WAT      O 5989   0.770   5.054   0.301
 1816WAT     H1 5990   0.724   4.967   0.318
 1816WAT     H2 5991   0.861   5.051   0.342
 1817WAT      O 5992   0.618   5.291   1.284
 1817WAT     H1 5993   0.613   5.373   1.341
 1817WAT     H2 5994   0.707   5.288   1.239
 1818WAT      O 5995   1.352   3.776   0.168
 1818WAT     H1 5996   1.387   3.735   0.084
 1818WAT     H2 5997   1.262   3.738   0.188
 1819WAT      O 5998   1.300   4.177   0.691
 1819WAT     H1 5999   1.241   4.257   0.695
 1819WAT     H2 6000   1.315   4.142   0.784
 1820WAT      O 6001   1.593   3.945   0.882
 1820WAT     H1 6002   1.509   3.944   0.936
 1820WAT     H2 6003   1.595   4.028   0.826
 1821WAT      O 6004   0.039   4.801   0.300
 1821WAT     H1 6005   0.138   4.790   0.291
 1821WAT     H2 6006  -0.001   4.715   0.332
 1822WAT      O 6007   0.875   5.370   0.337
 1822WAT     H1 6008   0.798   5.335   0.283
 1822WAT     H2 6009   0.843   5.441   0.399
 1823WAT      O 6010   0.230   4.352   1.975
 1823WAT     H1 6011   0.137   4.350   2.012
 1823WAT     H2 6012   0.231   4.313   1.883
 1824WAT      O 6013   0.225   3.999   2.858
 1824WAT     H1 6014   0.260   3.982   2.950
 1824WAT     H2 6015   0.137   3.954   2.846
 1825WAT      O 6016   0.019   4.092   2.509
 1825WAT     H1 6017  -0.063   4.135   2.548
 1825WAT     H2 6018  -0.009   4.019   2.446
 1826WAT      O 6019   0.569   4.999   3.027
 1826WAT     H1 6020   0.476   4.992   2.990
 1826WAT     H2 6021   0.580   5.088   3.071
 1827WAT      O 6022   1.555   5.235   2.565
 1827WAT     H1 6023   1.498   5.219   2.646
 1827WAT     H2 6024   1.496   5.245   2.485
 1828WAT      O 6025   1.135   4.427   2.579
 1828WAT     H1 6026   1.192   4.505   2.554
 1828WAT     H2 6027   1.075   4.453   2.655
 1829WAT      O 6028   1.755   4.331   2.093
 1829WAT     H1 6029   1.743   4.318   1.994
 1829WAT     H2 6030   1.725   4.250   2.142
 1830WAT      O 6031   0.768   4.868   2.885
 1830WAT     H1 6032   0.690   4.885   2.945
 1830WAT     H2 6033   0.802   4.955   2.849
 1831WAT      O 6034   0.850   4.522   3.685
 1831WAT     H1 6035   0.846   4.598   3.750
 1831WAT     H2 6036   0.872   4.558   3.594
 1832WAT      O 6037   0.685   4.736   2.527
 1832WAT     H1 6038   0.754   4.720   2.597
 1832WAT     H2 6039   0.612   4.793   2.565
 1833WAT      O 6040   0.686   4.885   3.665
 1833WAT     H1 6041   0.746   4.964   3.679
 1833WAT     H2 6042   0.600   4.916   3.624
 1834WAT      O 6043   0.335   5.159   2.923
 1834WAT     H1 6044   0.257   5.128   2.870
 1834WAT     H2 6045   0.393   5.217   2.866
 1835WAT      O 6046   1.460   5.229   3.201
 1835WAT     H1 6047   1.484   5.323   3.227
 1835WAT     H2 6048   1.444   5.175   3.283
 1836WAT      O 6049   0.438   4.116   3.361
 1836WAT     H1 6050   0.520   4.060   3.370
 1836WAT     H2 6051   0.357   4.058   3.365
 1837WAT      O 6052   1.603   4.171   2.599
 1837WAT     H1 6053   1.529   4.217   2.549
 1837WAT     H2 6054   1.654   4.239   2.652
 1838WAT      O 6055   0.231   5.437   2.345
 1838WAT     H1 6056   0.265   5.514   2.399
 1838WAT     H2 6057   0.275   5.437   2.255
 1839WAT      O 6058   1.127   5.065   3.552
 1839WAT     H1 6059   1.174   5.065   3.640
 1839WAT     H2 6060   1.079   4.978   3.541
 1840WAT      O 6061   0.230   5.158   2.400
 1840WAT     H1 6062   0.204   5.254   2.400
 1840WAT     H2 6063   0.159   5.104   2.445
 1841WAT      O 6064   0.240   4.815   2.748
 1841WAT     H1 6065   0.254   4.731   2.800
 1841WAT     H2 6066   0.185   4.879   2.803
 1842WAT      O 6067   0.620   5.510   3.301
 1842WAT     H1 6068   0.528   5.493   3.336
 1842WAT     H2 6069   0.648   5.602   3.327
 1843WAT      O 6070   0.606   4.688   1.985
 1843WAT     H1 6071   0.613   4.772   1.931
 1843WAT     H2 6072   0.652   4.701   2.073
 1844WAT      O 6073   1.594   3.838   3.342
 1844WAT     H1 6074   1.576   3.905   3.270
 1844WAT     H2 6075   1.591   3.884   3.431
 1845WAT      O 6076   0.122   4.367   2.425
 1845WAT     H1 6077   0.077   4.279   2.442
 1845WAT     H2 6078   0.121   4.421   2.509
 1846WAT      O 6079   1.842   5.491   2.221
 1846WAT     H1 6080   1.896   5.462   2.301
 1846WAT     H2 6081   1.872   5.581   2.192
 1847WAT      O 6082   0.027   5.320   1.979
 1847WAT     H1 6083   0.008   5.224   2.000
 1847WAT     H2 6084  -0.006   5.378   2.054
 1848WAT      O 6085   1.689   4.646   2.474
 1848WAT     H1 6086   1.784   4.617   2.482
 1848WAT     H2 6087   1.681   4.711   2.399
 1849WAT      O 6088   1.641   4.832   2.294
 1849WAT     H1 6089   1.727   4.834   2.242
 1849WAT     H2 6090   1.655   4.879   2.382
 1850WAT      O 6091   0.113   4.461   3.459
 1850WAT     H1 6092   0.201   4.448   3.504
 1850WAT     H2 6093   0.100   4.558   3.437
 1851WAT      O 6094   0.613   5.089   2.588
 1851WAT     H1 6095   0.564   5.002   2.597
 1851WAT     H2 6096   0.590   5.132   2.501
 1852WAT      O 6097   1.293   4.952   3.285
 1852WAT     H1 6098   1.330   4.879   3.227
 1852WAT     H2 6099   1.345   4.957   3.370
 1853WAT      O 6100   0.809   3.728   2.364
 1853WAT     H1 6101   0.849   3.819   2.355
 1853WAT     H2 6102   0.709   3.736   2.370
 1854WAT      O 6103   0.197   4.700   3.126
 1854WAT     H1 6104   0.286   4.655   3.112
 1854WAT     H2 6105   0.124   4.635   3.107
 1855WAT      O 6106   1.525   4.723   2.052
 1855WAT     H1 6107   1.462   4.647   2.065
 1855WAT     H2 6108   1.573   4.741   2.138
 1856WAT      O 6109   1.187   5.516   3.478
 1856WAT     H1 6110   1.211   5.576   3.402
 1856WAT     H2 6111   1.194   5.421   3.448
 1857WAT      O 6112   0.317   3.975   3.663
 1857WAT     H1 6113   0.388   4.046   3.669
 1857WAT     H2 6114   0.229   4.014   3.691
 1858WAT      O 6115   1.466   5.141   2.815
 1858WAT     H1 6116   1.407   5.147   2.895
 1858WAT     H2 6117   1.451   5.053   2.769
 1859WAT      O 6118   1.667   5.438   2.434
 1859WAT     H1 6119   1.626   5.415   2.346
 1859WAT     H2 6120   1.649   5.364   2.499
 1860WAT      O 6121   0.598   4.453   2.132
 1860WAT     H1 6122   0.622   4.522   2.064
 1860WAT     H2 6123   0.520   4.486   2.186
 1861WAT      O 6124   1.281   4.069   2.806
 1861WAT     H1 6125   1.195   4.019   2.793
 1861WAT     H2 6126   1.343   4.015   2.862
 1862WAT      O 6127   1.576   5.386   2.169
 1862WAT     H1 6128   1.665   5.432   2.172
 1862WAT     H2 6129   1.555   5.362   2.074
 1863WAT      O 6130   0.807   4.329   3.327
 1863WAT     H1 6131   0.760   4.326   3.416
 1863WAT     H2 6132   0.756   4.274   3.261
 1864WAT      O 6133   1.394   4.193   3.536
 1864WAT     H1 6134   1.374   4.236   3.624
 1864WAT     H2 6135   1.472   4.131   3.545
 1865WAT      O 6136   0.973   4.614   3.434
 1865WAT     H1 6137   1.019   4.530   3.405
 1865WAT     H2 6138   0.917   4.648   3.359
 1866WAT      O 6139   0.991   4.134   3.104
 1866WAT     H1 6140   0.914   4.168   3.158
 1866WAT     H2 6141   0.957   4.083   3.025
 1867WAT      O 6142   1.041   4.425   2.291
 1867WAT     H1 6143   1.067   4.421   2.387
 1867WAT     H2 6144   0.956   4.374   2.277
 1868WAT      O 6145   0.076   4.535   2.651
 1868WAT     H1 6146   0.175   4.523   2.660
 1868WAT     H2 6147   0.052   4.630   2.672
 1869WAT      O 6148   0.130   5.545   3.433
 1869WAT     H1 6149   0.120   5.530   3.532
 1869WAT     H2 6150   0.044   5.581   3.397
 1870WAT      O 6151   0.865   4.072   2.057
 1870WAT     H1 6152   0.924   4.135   2.008
 1870WAT     H2 6153   0.884   3.978   2.028
 1871WAT      O 6154   1.719   4.309   3.693
 1871WAT     H1 6155   1.693   4.398   3.657
 1871WAT     H2 6156   1.717   4.241   3.620
 1872WAT      O 6157   1.362   4.868   2.407
 1872WAT     H1 6158   1.445   4.839   2.359
 1872WAT     H2 6159   1.313   4.935   2.351
 1873WAT      O 6160   0.550   3.920   2.747
 1873WAT     H1 6161   0.545   3.915   2.847
 1873WAT     H2 6162   0.552   4.016   2.718
 1874WAT      O 6163   1.008   5.180   2.339
 1874WAT     H1 6164   0.962   5.252   2.287
 1874WAT     H2 6165   1.004   5.200   2.437
 1875WAT      O 6166   0.351   5.525   2.715
 1875WAT     H1 6167   0.401   5.439   2.721
 1875WAT     H2 6168   0.416   5.602   2.712
 1876WAT      O 6169   1.795   4.790   2.735
 1876WAT     H1 6170   1.733   4.775   2.659
 1876WAT     H2 6171   1.743   4.801   2.820
 1877WAT      O 6172   1.227   5.274   3.368
 1877WAT     H1 6173   1.233   5.197   3.432
 1877WAT     H2 6174   1.175   5.248   3.288
 1878WAT      O 6175   0.321   4.667   2.104
 1878WAT     H1 6176   0.403   4.706   2.062
 1878WAT     H2 6177   0.294   4.585   2.055
 1879WAT      O 6178   1.458   4.459   2.590
 1879WAT     H1 6179   1.453   4.394   2.665
 1879WAT     H2 6180   1.538   4.518   2.603
 1880WAT      O 6181   0.461   4.990   3.589
 1880WAT     H1 6182   0.411   4.991   3.503
 1880WAT     H2 6183   0.398   4.972   3.665
 1881WAT      O 6184   1.111   5.500   2.099
 1881WAT     H1 6185   1.051   5.438   2.149
 1881WAT     H2 6186   1.142   5.456   2.014
 1882WAT      O 6187   0.202   4.009   3.360
 1882WAT     H1 6188   0.122   4.069   3.347
 1882WAT     H2 6189   0.192   3.960   3.446
 1883WAT      O 6190   1.632   5.101   1.943
 1883WAT     H1 6191   1.600   5.195   1.933
 1883WAT     H2 6192   1.556   5.038   1.931
 1884WAT      O 6193   0.464   5.467   2.185
 1884WAT     H1 6194   0.497   5.506   2.271
 1884WAT     H2 6195   0.540   5.460   2.120
 1885WAT      O 6196   1.400   3.831   2.288
 1885WAT     H1 6197   1.376   3.794   2.198
 1885WAT     H2 6198   1.499   3.847   2.292
 1886WAT      O 6199   0.249   5.509   3.103
 1886WAT     H1 6200   0.306   5.444   3.153
 1886WAT     H2 6201   0.233   5.476   3.010
 1887WAT      O 6202   0.940   5.422   2.766
 1887WAT     H1 6203   1.020   5.365   2.787
 1887WAT     H2 6204   0.891   5.382   2.689
 1888WAT      O 6205   0.382   4.424   2.342
 1888WAT     H1 6206   0.427   4.334   2.339
 1888WAT     H2 6207   0.288   4.413   2.375
 1889WAT      O 6208   1.547   3.946   3.591
 1889WAT     H1 6209   1.542   3.983   3.683
 1889WAT     H2 6210   1.475   3.877   3.579
 1890WAT      O 6211   0.614   3.846   1.979
 1890WAT     H1 6212   0.712   3.824   1.986
 1890WAT     H2 6213   0.583   3.829   1.886
 1891WAT      O 6214   0.781   3.988   3.611
 1891WAT     H1 6215   0.848   3.927   3.654
 1891WAT     H2 6216   0.708   4.007   3.676
 1892WAT      O 6217   0.888   5.238   3.057
 1892WAT     H1 6218   0.865   5.213   2.963
 1892WAT     H2 6219   0.949   5.169   3.096
 1893WAT      O 6220   1.351   4.314   3.295
 1893WAT     H1 6221   1.379   4.271   3.380
 1893WAT     H2 6222   1.376   4.410   3.296
 1894WAT      O 6223   0.803   5.126   2.786
 1894WAT     H1 6224   0.893   5.140   2.744
 1894WAT     H2 6225   0.732   5.128   2.715
 1895WAT      O 6226   0.922   4.227   2.761
 1895WAT     H1 6227   0.897   4.218   2.665
 1895WAT     H2 6228   0.970   4.145   2.792
 1896WAT      O 6229   0.539   3.788   2.374
 1896WAT     H1 6230   0.458   3.789   2.432
 1896WAT     H2 6231   0.542   3.871   2.319
 1897WAT      O 6232   1.434   4.912   1.903
 1897WAT     H1 6233   1.466   4.836   1.960
 1897WAT     H2 6234   1.342   4.939   1.933
 1898WAT      O 6235   0.297   3.759   2.033
 1898WAT     H1 6236   0.346   3.843   2.012
 1898WAT     H2 6237   0.359   3.694   2.078
 1899WAT      O 6238   0.935   3.960   2.342
 1899WAT     H1 6239   0.887   4.001   2.264
 1899WAT     H2 6240   1.034   3.958   2.323
 1900WAT      O 6241   1.076   4.407   3.326
 1900WAT     H1 6242   0.996   4.346   3.329
 1900WAT     H2 6243   1.157   4.354   3.302
 1901WAT      O 6244   1.227   5.294   2.655
 1901WAT     H1 6245   1.248   5.368   2.590
 1901WAT     H2 6246   1.295   5.294   2.728
 1902WAT      O 6247   0.459   4.876   2.603
 1902WAT     H1 6248   0.388   4.849   2.668
 1902WAT     H2 6249   0.433   4.848   2.510
 1903WAT      O 6250   1.271   5.521   2.453
 1903WAT     H1 6251   1.315   5.585   2.389
 1903WAT     H2 6252   1.221   5.573   2.523
 1904WAT      O 6253   1.032   4.273   1.878
 1904WAT     H1 6254   0.991   4.355   1.839
 1904WAT     H2 6255   1.096   4.299   1.951
 1905WAT      O 6256   0.078   4.280   3.248
 1905WAT     H1 6257   0.170   4.279   3.207
 1905WAT     H2 6258   0.072   4.354   3.315
 1906WAT      O 6259   0.561   3.946   3.009
 1906WAT     H1 6260   0.599   3.862   3.046
 1906WAT     H2 6261   0.473   3.965   3.053
 1907WAT      O 6262   0.866   4.178   2.504
 1907WAT     H1 6263   0.834   4.250   2.442
 1907WAT     H2 6264   0.890   4.097   2.451
 1908WAT      O 6265   1.017   3.763   2.615
 1908WAT     H1 6266   0.945   3.768   2.546
 1908WAT     H2 6267   0.993   3.694   2.684
 1909WAT      O 6268   1.429   4.897   2.729
 1909WAT     H1 6269   1.374   4.813   2.722
 1909WAT     H2 6270   1.455   4.926   2.637
 1910WAT      O 6271   1.466   4.314   2.854
 1910WAT     H1 6272   1.436   4.219   2.861
 1910WAT     H2 6273   1.539   4.330   2.920
 1911WAT      O 6274   1.857   4.557   2.239
 1911WAT     H1 6275   1.899   4.493   2.303
 1911WAT     H2 6276   1.819   4.506   2.161
 1912WAT      O 6277   0.488   5.109   2.036
 1912WAT     H1 6278   0.401   5.094   2.083
 1912WAT     H2 6279   0.471   5.135   1.941
 1913WAT      O 6280   1.664   5.004   2.519
 1913WAT     H1 6281   1.763   5.012   2.533
 1913WAT     H2 6282   1.619   5.088   2.550
 1914WAT      O 6283   1.390   4.299   1.940
 1914WAT     H1 6284   1.336   4.278   2.021
 1914WAT     H2 6285   1.481   4.258   1.949
 1915WAT      O 6286   0.527   3.980   2.190
 1915WAT     H1 6287   0.554   3.921   2.115
 1915WAT     H2 6288   0.527   4.075   2.159
 1916WAT      O 6289   1.754   4.947   3.450
 1916WAT     H1 6290   1.845   4.908   3.437
 1916WAT     H2 6291   1.762   5.043   3.474
 1917WAT      O 6292   1.064   5.071   3.202
 1917WAT     H1 6293   0.984   5.048   3.257
 1917WAT     H2 6294   1.147   5.045   3.251
 1918WAT      O 6295   1.592   5.353   3.487
 1918WAT     H1 6296   1.619   5.387   3.397
 1918WAT     H2 6297   1.671   5.315   3.533
 1919WAT      O 6298   1.111   4.919   2.962
 1919WAT     H1 6299   1.071   4.963   3.043
 1919WAT     H2 6300   1.070   4.956   2.879
 1920WAT      O 6301   1.638   4.823   2.941
 1920WAT     H1 6302   1.643   4.904   3.000
 1920WAT     H2 6303   1.552   4.825   2.890
 1921WAT      O 6304   0.915   3.813   3.264
 1921WAT     H1 6305   0.940   3.793   3.169
 1921WAT     H2 6306   0.987   3.869   3.306
 1922WAT      O 6307   0.980   4.840   3.581
 1922WAT     H1 6308   0.881   4.846   3.591
 1922WAT     H2 6309   1.003   4.760   3.525
 1923WAT      O 6310   0.705   4.774   2.230
 1923WAT     H1 6311   0.691   4.781   2.329
 1923WAT     H2 6312   0.789   4.723   2.212
 1924WAT      O 6313   0.410   4.537   3.113
 1924WAT     H1 6314   0.496   4.549   3.163
 1924WAT     H2 6315   0.368   4.450   3.140
 1925WAT      O 6316   1.274   4.110   3.124
 1925WAT     H1 6317   1.295   4.184   3.188
 1925WAT     H2 6318   1.185   4.127   3.081
 1926WAT      O 6319   0.064   5.288   3.193
 1926WAT     H1 6320   0.018   5.370   3.159
 1926WAT     H2 6321   0.162   5.307   3.202
 1927WAT      O 6322   0.367   4.824   2.363
 1927WAT     H1 6323   0.360   4.907   2.307
 1927WAT     H2 6324   0.371   4.744   2.303
 1928WAT      O 6325   0.566   4.261   2.727
 1928WAT     H1 6326   0.578   4.327   2.653
 1928WAT     H2 6327   0.612   4.295   2.810
 1929WAT      O 6328   1.252   5.072   2.250
 1929WAT     H1 6329   1.302   5.149   2.290
 1929WAT     H2 6330   1.157   5.074   2.282
 1930WAT      O 6331   1.272   5.169   3.004
 1930WAT     H1 6332   1.319   5.182   3.091
 1930WAT     H2 6333   1.206   5.095   3.013
 1931WAT      O 6334   1.582   4.363   2.334
 1931WAT     H1 6335   1.551   4.424   2.407
 1931WAT     H2 6336   1.632   4.415   2.265
 1932WAT      O 6337   0.354   5.234   3.191
 1932WAT     H1 6338   0.333   5.190   3.104
 1932WAT     H2 6339   0.451   5.260   3.194
 1933WAT      O 6340   0.402   4.475   3.460
 1933WAT     H1 6341   0.470   4.530   3.413
 1933WAT     H2 6342   0.442   4.387   3.487
 1934WAT      O 6343   1.587   4.503   3.532
 1934WAT     H1 6344   1.495   4.541   3.527
 1934WAT     H2 6345   1.647   4.550   3.467
 1935WAT      O 6346   1.013   3.829   3.632
 1935WAT     H1 6347   1.019   3.914   3.580
 1935WAT     H2 6348   1.045   3.753   3.575
 1936WAT      O 6349   0.504   3.774   3.602
 1936WAT     H1 6350   0.462   3.717   3.532
 1936WAT     H2 6351   0.438   3.843   3.634
 1937WAT      O 6352   0.573   4.594   2.891
 1937WAT     H1 6353   0.617   4.683   2.882
 1937WAT     H2 6354   0.510   4.594   2.968
 1938WAT      O 6355   1.360   4.586   2.907
 1938WAT     H1 6356   1.285   4.586   2.841
 1938WAT     H2 6357   1.397   4.494   2.916
 1939WAT      O 6358   1.209   4.249   2.137
 1939WAT     H1 6359   1.222   4.165   2.191
 1939WAT     H2 6360   1.180   4.323   2.197
 1940WAT      O 6361   0.307   3.937   3.093
 1940WAT     H1 6362   0.284   3.974   3.183
 1940WAT     H2 6363   0.277   3.842   3.087
 1941WAT      O 6364   0.037   5.034   3.144
 1941WAT     H1 6365   0.090   4.985   3.212
 1941WAT     H2 6366   0.059   5.132   3.149
 1942WAT      O 6367   0.732   4.358   2.926
 1942WAT     H1 6368   0.791   4.332   2.850
 1942WAT     H2 6369   0.704   4.454   2.915
 1943WAT      O 6370   1.728   4.659   3.716
 1943WAT     H1 6371   1.682   4.652   3.627
 1943WAT     H2 6372   1.666   4.703   3.782
 1944WAT      O 6373   0.307   3.787   2.480
 1944WAT     H1 6374   0.296   3.881   2.513
 1944WAT     H2 6375   0.302   3.724   2.557
 1945WAT      O 6376   1.622   4.091   2.236
 1945WAT     H1 6377   1.624   4.015   2.300
 1945WAT     H2 6378   1.574   4.168   2.276
 1946WAT      O 6379   1.023   4.490   2.828
 1946WAT     H1 6380   1.038   4.511   2.924
 1946WAT     H2 6381   0.993   4.395   2.819
 1947WAT      O 6382   0.980   5.297   3.562
 1947WAT     H1 6383   0.960   5.341   3.474
 1947WAT     H2 6384   1.019   5.206   3.546
 1948WAT      O 6385   1.859   5.242   3.467
 1948WAT     H1 6386   1.873   5.269   3.372
 1948WAT     H2 6387   1.942   5.264   3.520
 1949WAT      O 6388   0.350   4.622   3.666
 1949WAT     H1 6389   0.426   4.666   3.714
 1949WAT     H2 6390   0.385   4.575   3.584
 1950WAT      O 6391   1.540   3.998   1.987
 1950WAT     H1 6392   1.479   3.923   2.010
 1950WAT     H2 6393   1.562   4.050   2.070
 1951WAT      O 6394   1.303   4.562   1.904
 1951WAT     H1 6395   1.337   4.469   1.919
 1951WAT     H2 6396   1.321   4.589   1.809
 1952WAT      O 6397   1.068   5.057   2.711
 1952WAT     H1 6398   1.075   4.973   2.656
 1952WAT     H2 6399   1.130   5.126   2.675
 1953WAT      O 6400   0.319   4.534   2.811
 1953WAT     H1 6401   0.412   4.570   2.816
 1953WAT     H2 6402   0.313   4.449   2.863
 1954WAT      O 6403   0.339   4.233   2.868
 1954WAT     H1 6404   0.287   4.150   2.851
 1954WAT     H2 6405   0.416   4.238   2.804
 1955WAT      O 6406   1.138   4.104   3.540
 1955WAT     H1 6407   1.093   4.167   3.604
 1955WAT     H2 6408   1.231   4.135   3.523
 1956WAT      O 6409   1.160   3.931   3.339
 1956WAT     H1 6410   1.160   3.995   3.416
 1956WAT     H2 6411   1.188   3.979   3.256
 1957WAT      O 6412   0.008   5.050   2.062
 1957WAT     H1 6413  -0.085   5.071   2.031
 1957WAT     H2 6414   0.018   4.951   2.075
 1958WAT      O 6415   0.088   5.525   2.789
 1958WAT     H1 6416   0.046   5.439   2.762
 1958WAT     H2 6417   0.182   5.528   2.755
 1959WAT      O 6418   0.504   5.292   2.772
 1959WAT     H1 6419   0.570   5.366   2.781
 1959WAT     H2 6420   0.548   5.213   2.730
 1960WAT      O 6421   1.002   4.520   3.100
 1960WAT     H1 6422   1.043   4.488   3.186
 1960WAT     H2 6423   0.906   4.493   3.097
 1961WAT      O 6424   0.040   4.268   2.976
 1961WAT     H1 6425   0.125   4.235   2.935
 1961WAT     H2 6426   0.053   4.283   3.074
 1962WAT      O 6427   0.189   4.244   3.584
 1962WAT     H1 6428   0.248   4.204   3.514
 1962WAT     H2 6429   0.131   4.315   3.543
 1963WAT      O 6430   1.369   4.674   3.522
 1963WAT     H1 6431   1.408   4.763   3.542
 1963WAT     H2 6432   1.379   4.654   3.425
 1964WAT      O 6433   0.815   4.296   2.187
 1964WAT     H1 6434   0.822   4.207   2.141
 1964WAT     H2 6435   0.721   4.330   2.179
 1965WAT      O 6436   1.657   4.328   3.068
 1965WAT     H1 6437   1.619   4.259   3.130
 1965WAT     H2 6438   1.739   4.292   3.024
 1966WAT      O 6439   0.252   5.288   3.606
 1966WAT     H1 6440   0.222   5.345   3.682
 1966WAT     H2 6441   0.245   5.191   3.632
 1967WAT      O 6442   0.671   4.188   3.131
 1967WAT     H1 6443   0.637   4.099   3.101
 1967WAT     H2 6444   0.697   4.242   3.051
 1968WAT      O 6445   0.930   5.402   3.327
 1968WAT     H1 6446   0.906   5.384   3.232
 1968WAT     H2 6447   0.960   5.496   3.337
 1969WAT      O 6448   0.473   4.224   2.053
 1969WAT     H1 6449   0.534   4.304   2.057
 1969WAT     H2 6450   0.378   4.255   2.060
 1970WAT      O 6451   0.159   4.861   3.328
 1970WAT     H1 6452   0.181   4.800   3.404
 1970WAT     H2 6453   0.169   4.812   3.242
 1971WAT      O 6454   1.347   4.783   3.096
 1971WAT     H1 6455   1.371   4.720   3.022
 1971WAT     H2 6456   1.257   4.823   3.078
 1972WAT      O 6457   1.302   4.579   2.171
 1972WAT     H1 6458   1.216   4.548   2.213
 1972WAT     H2 6459   1.298   4.565   2.072
 1973WAT      O 6460   1.759   5.471   3.016
 1973WAT     H1 6461   1.820   5.501   2.943
 1973WAT     H2 6462   1.721   5.382   2.994
 1974WAT      O 6463   1.252   5.455   2.990
 1974WAT     H1 6464   1.336   5.460   2.936
 1974WAT     H2 6465   1.229   5.359   3.008
 1975WAT      O 6466   0.083   4.982   2.884
 1975WAT     H1 6467   0.078   4.981   2.984
 1975WAT     H2 6468   0.000   4.941   2.846
 1976WAT      O 6469   0.688   5.386   3.578
 1976WAT     H1 6470   0.632   5.467   3.587
 1976WAT     H2 6471   0.740   5.390   3.492
 1977WAT      O 6472   1.726   3.859   2.385
 1977WAT     H1 6473   1.799   3.842   2.318
 1977WAT     H2 6474   1.695   3.772   2.423
 1978WAT      O 6475   1.388   5.297   2.339
 1978WAT     H1 6476   1.455   5.309   2.265
 1978WAT     H2 6477   1.348   5.386   2.362
 1979WAT      O 6478   0.130   5.518   3.713
 1979WAT     H1 6479   0.089   5.444   3.766
 1979WAT     H2 6480   0.194   5.569   3.771
 1980WAT      O 6481   1.280   4.651   2.534
 1980WAT     H1 6482   1.340   4.570   2.536
 1980WAT     H2 6483   1.320   4.720   2.474
 1981WAT      O 6484   0.830   4.997   3.284
 1981WAT     H1 6485   0.825   5.030   3.379
 1981WAT     H2 6486   0.744   5.016   3.238
 1982WAT      O 6487   0.672   5.340   2.016
 1982WAT     H1 6488   0.681   5.350   1.917
 1982WAT     H2 6489   0.632   5.251   2.037
 1983WAT      O 6490   1.650   5.444   3.256
 1983WAT     H1 6491   1.703   5.454   3.172
 1983WAT     H2 6492   1.623   5.534   3.290
 1984WAT      O 6493   1.841   3.899   2.825
 1984WAT     H1 6494   1.880   3.814   2.789
 1984WAT     H2 6495   1.743   3.901   2.806
 1985WAT      O 6496   0.263   4.050   2.582
 1985WAT     H1 6497   0.184   4.101   2.548
 1985WAT     H2 6498   0.254   4.035   2.680
 1986WAT      O 6499   1.194   5.336   1.893
 1986WAT     H1 6500   1.200   5.243   1.930
 1986WAT     H2 6501   1.135   5.336   1.813
 1987WAT      O 6502   0.822   4.726   3.234
 1987WAT     H1 6503   0.862   4.725   3.142
 1987WAT     H2 6504   0.832   4.818   3.274
 1988WAT      O 6505   0.916   4.634   2.153
 1988WAT     H1 6506   0.979   4.672   2.085
 1988WAT     H2 6507   0.956   4.551   2.192
 1989WAT      O 6508   1.504   5.331   1.906
 1989WAT     H1 6509   1.412   5.368   1.913
 1989WAT     H2 6510   1.542   5.351   1.816
 1990WAT      O 6511   0.372   5.012   3.352
 1990WAT     H1 6512   0.359   5.105   3.318
 1990WAT     H2 6513   0.288   4.960   3.339
 1991WAT      O 6514   1.614   5.016   3.151
 1991WAT     H1 6515   1.674   5.019   3.231
 1991WAT     H2 6516   1.539   5.080   3.164
 1992WAT      O 6517   1.039   4.822   2.558
 1992WAT     H1 6518   0.969   4.775   2.612
 1992WAT     H2 6519   1.098   4.754   2.515
 1993WAT      O 6520   1.014   3.960   2.833
 1993WAT     H1 6521   1.006   3.924   2.740
 1993WAT     H2 6522   1.012   3.884   2.898
 1994WAT      O 6523   0.590   5.211   2.353
 1994WAT     H1 6524   0.632   5.153   2.283
 1994WAT     H2 6525   0.546   5.290   2.309
 1995WAT      O 6526   1.709   4.109   3.243
 1995WAT     H1 6527   1.782   4.178   3.247
 1995WAT     H2 6528   1.737   4.034   3.184
 1996WAT      O 6529   0.255   5.072   2.152
 1996WAT     H1 6530   0.159   5.073   2.125
 1996WAT     H2 6531   0.267   5.125   2.236
 1997WAT      O 6532   0.105   4.737   3.588
 1997WAT     H1 6533   0.028   4.704   3.642
 1997WAT     H2 6534   0.190   4.707   3.630
 1998WAT      O 6535   0.672   3.927   3.351
 1998WAT     H1 6536   0.762   3.911   3.311
 1998WAT     H2 6537   0.680   3.932   3.450
 1999WAT      O 6538   0.075   4.069   1.895
 1999WAT     H1 6539  -0.017   4.041   1.866
 1999WAT     H2 6540   0.106   4.146   1.839
 2000WAT      O 6541   1.440   4.580   3.260
 2000WAT     H1 6542   1.383   4.632   3.197
 2000WAT     H2 6543   1.536   4.592   3.236
 2001WAT      O 6544   0.072   3.890   2.180
 2001WAT     H1 6545   0.055   3.973   2.126
 2001WAT     H2 6546   0.162   3.853   2.158
 2002WAT      O 6547   1.183   5.059   1.981
 2002WAT     H1 6548   1.084   5.048   1.983
 2002WAT     H2 6549   1.217   5.074   2.074
 2003WAT      O 6550   0.613   4.566   3.293
 2003WAT     H1 6551   0.669   4.647   3.276
 2003WAT     H2 6552   0.672   4.486   3.296
 2004WAT      O 6553   1.493   5.491   2.821
 2004WAT     H1 6554   1.526   5.555   2.752
 2004WAT     H2 6555   1.559   5.485   2.896
 2005WAT      O 6556   0.716   4.289   3.570
 2005WAT     H1 6557   0.735   4.354   3.644
 2005WAT     H2 6558   0.776   4.209   3.579
 2006WAT      O 6559   1.450   4.944   3.495
 2006WAT     H1 6560   1.441   4.934   3.594
 2006WAT     H2 6561   1.546   4.937   3.469
 2007WAT      O 6562   0.390   5.465   3.422
 2007WAT     H1 6563   0.299   5.506   3.420
 2007WAT     H2 6564   0.383   5.371   3.454
 2008WAT      O 6565   1.674   4.607   3.116
 2008WAT     H1 6566   1.647   4.518   3.079
 2008WAT     H2 6567   1.675   4.675   3.043
 2009WAT      O 6568   1.225   4.049   2.311
 2009WAT     H1 6569   1.290   3.975   2.300
 2009WAT     H2 6570   1.245   4.099   2.395
 2010WAT      O 6571   0.594   4.469   2.514
 2010WAT     H1 6572   0.644   4.554   2.495
 2010WAT     H2 6573   0.506   4.471   2.466
 2011WAT      O 6574   1.777   4.066   3.504
 2011WAT     H1 6575   1.760   4.097   3.410
 2011WAT     H2 6576   1.693   4.029   3.542
 2012WAT      O 6577   1.730   4.658   3.379
 2012WAT     H1 6578   1.768   4.749   3.394
 2012WAT     H2 6579   1.722   4.641   3.280
 2013WAT      O 6580   0.859   5.098   1.878
 2013WAT     H1 6581   0.813   5.113   1.966
 2013WAT     H2 6582   0.903   5.183   1.848
 2014WAT      O 6583   0.661   5.514   2.815
 2014WAT     H1 6584   0.615   5.602   2.802
 2014WAT     H2 6585   0.760   5.526   2.808
 2015WAT      O 6586   0.859   4.680   2.723
 2015WAT     H1 6587   0.913   4.611   2.771
 2015WAT     H2 6588   0.827   4.749   2.789
 2016WAT      O 6589   1.083   4.708   1.949
 2016WAT     H1 6590   1.060   4.761   1.867
 2016WAT     H2 6591   1.164   4.652   1.930
 2017WAT      O 6592   1.861   5.293   2.713
 2017WAT     H1 6593   1.790   5.281   2.643
 2017WAT     H2 6594   1.862   5.214   2.773
 2018WAT      O 6595   0.221   5.038   3.706
 2018WAT     H1 6596   0.156   4.965   3.685
 2018WAT     H2 6597   0.225   5.052   3.804
 2019WAT      O 6598   0.079   4.964   2.515
 2019WAT     H1 6599   0.078   4.917   2.603
 2019WAT     H2 6600   0.161   4.936   2.464
 2020WAT      O 6601   0.672   5.115   3.486
 2020WAT     H1 6602   0.594   5.065   3.524
 2020WAT     H2 6603   0.669   5.210   3.517
 2021WAT      O 6604   1.824   3.916   3.089
 2021WAT     H1 6605   1.820   3.826   3.133
 2021WAT     H2 6606   1.827   3.905   2.990
 2022WAT      O 6607   0.428   4.148   2.382
 2022WAT     H1 6608   0.458   4.076   2.320
 2022WAT     H2 6609   0.389   4.108   2.465
 2023WAT      O 6610   1.705   5.211   2.966
 2023WAT     H1 6611   1.612   5.186   2.939
 2023WAT     H2 6612   1.731   5.161   3.048
 2024WAT      O 6613   0.317   4.271   3.142
 2024WAT     H1 6614   0.355   4.212   3.214
 2024WAT     H2 6615   0.357   4.245   3.054
 2025WAT      O 6616   0.812   5.310   2.549
 2025WAT     H1 6617   0.844   5.320   2.455
 2025WAT     H2 6618   0.733   5.248   2.551
 2026WAT      O 6619   1.424   3.938   2.974
 2026WAT     H1 6620   1.476   3.873   3.029
 2026WAT     H2 6621   1.375   4.001   3.035
 2027WAT      O 6622   1.001   3.758   3.016
 2027WAT     H1 6623   0.938   3.686   2.985
 2027WAT     H2 6624   1.094   3.722   3.016
 2028WAT      O 6625   0.770   5.054   2.163
 2028WAT     H1 6626   0.724   4.967   2.180
 2028WAT     H2 6627   0.861   5.051   2.204
 2029WAT      O 6628   0.618   5.291   3.146
 2029WAT     H1 6629   0.613   5.373   3.203
 2029WAT     H2 6630   0.707   5.288   3.101
 2030WAT      O 6631   1.352   3.776   2.030
 2030WAT     H1 6632   1.387   3.735   1.946
 2030WAT     H2 6633   1.262   3.738   2.050
 2031WAT      O 6634   1.300   4.177   2.553
 2031WAT     H1 6635   1.241   4.257   2.557
 2031WAT     H2 6636   1.315   4.142   2.646
 2032WAT      O 6637   1.593   3.945   2.744
 2032WAT     H1 6638   1.509   3.944   2.798
 2032WAT     H2 6639   1.595   4.028   2.688
 2033WAT      O 6640   0.039   4.801   2.162
 2033WAT     H1 6641   0.138   4.790   2.153
 2033WAT     H2 6642  -0.001   4.715   2.194
 2034WAT      O 6643   0.875   5.370   2.199
 2034WAT     H1 6644   0.798   5.335   2.145
 2034WAT     H2 6645   0.843   5.441   2.261
 2035WAT      O 6646   0.230   4.352   3.837
 2035WAT     H1 6647   0.137   4.350   3.874
 2035WAT     H2 6648   0.231   4.313   3.745
 2036WAT      O 6649   0.225   3.999   4.720
 2036WAT     H1 6650   0.260   3.982   4.812
 2036WAT     H2 6651   0.137   3.954   4.708
 2037WAT      O 6652   0.019   4.092   4.371
 2037WAT     H1 6653  -0.063   4.135   4.410
 2037WAT     H2 6654  -0.009   4.019   4.308
 2038WAT      O 6655   0.569   4.999   4.889
 2038WAT     H1 6656   0.476   4.992   4.852
 2038WAT     H2 6657   0.580   5.088   4.933
 2039WAT      O 6658   1.555   5.235   4.427
 2039WAT     H1 6659   1.498   5.219   4.508
 2039WAT     H2 6660   1.496   5.245   4.347
 2040WAT      O 6661   1.135   4.427   4.441
 2040WAT     H1 6662   1.192   4.505   4.416
 2040WAT     H2 6663   1.075   4.453   4.517
 2041WAT      O 6664   1.755   4.331   3.955
 2041WAT     H1 6665   1.743   4.318   3.856
 2041WAT     H2 6666   1.725   4.250   4.004
 2042WAT      O 6667   0.768   4.868   4.747
 2042WAT     H1 6668   0.690   4.885   4.807
 2042WAT     H2 6669   0.802   4.955   4.711
 2043WAT      O 6670   0.850   4.522   5.547
 2043WAT     H1 6671   0.846   4.598   5.612
 2043WAT     H2 6672   0.872   4.558   5.456
 2044WAT      O 6673   0.685   4.736   4.389
 2044WAT     H1 6674   0.754   4.720   4.459
 2044WAT     H2 6675   0.612   4.793   4.427
 2045WAT      O 6676   0.686   4.885   5.527
 2045WAT     H1 6677   0.746   4.964   5.541
 2045WAT     H2 6678   0.600   4.916   5.486
 2046WAT      O 6679   0.335   5.159   4.785
 2046WAT     H1 6680   0.257   5.128   4.732
 2046WAT     H2 6681   0.393   5.217   4.728
 2047WAT      O 6682   1.460   5.229   5.063
 2047WAT     H1 6683   1.484   5.323   5.089
 2047WAT     H2 6684   1.444   5.175   5.145
 2048WAT      O 6685   0.438   4.116   5.223
 2048WAT     H1 6686   0.520   4.060   5.232
 2048WAT     H2 6687   0.357   4.058   5.227
 2049WAT      O 6688   1.603   4.171   4.461
 2049WAT     H1 6689   1.529   4.217   4.411
 2049WAT     H2 6690   1.654   4.239   4.514
 2050WAT      O 6691   0.231   5.437   4.207
 2050WAT     H1 6692   0.265   5.514   4.261
 2050WAT     H2 6693   0.275   5.437   4.117
 2051WAT      O 6694   1.127   5.065   5.414
 2051WAT     H1 6695   1.174   5.065   5.502
 2051WAT     H2 6696   1.079   4.978   5.403
 2052WAT      O 6697   0.230   5.158   4.262
 2052WAT     H1 6698   0.204   5.254   4.262
 2052WAT     H2 6699   0.159   5.104   4.307
 2053WAT      O 6700   0.240   4.815   4.610
 2053WAT     H1 6701   0.254   4.731   4.662
 2053WAT     H2 6702   0.185   4.879   4.665
 2054WAT      O 6703   0.620   5.510   5.163
 2054WAT     H1 6704   0.528   5.493   5.198
 2054WAT     H2 6705   0.648   5.602   5.189
 2055WAT      O 6706   0.606   4.688   3.847
 2055WAT     H1 6707   0.613   4.772   3.793
 2055WAT     H2 6708   0.652   4.701   3.935
 2056WAT      O 6709   1.594   3.838   5.204
 2056WAT     H1 6710   1.576   3.905   5.132
 2056WAT     H2 6711   1.591   3.884   5.293
 2057WAT      O 6712   0.122   4.367   4.287
 2057WAT     H1 6713   0.077   4.279   4.304
 2057WAT     H2 6714   0.121   4.421   4.371
 2058WAT      O 6715   1.842   5.491   4.083
 2058WAT     H1 6716   1.896   5.462   4.163
 2058WAT     H2 6717   1.872   5.581   4.054
 2059WAT      O 6718   0.027   5.320   3.841
 2059WAT     H1 6719   0.008   5.224   3.862
 2059WAT     H2 6720  -0.006   5.378   3.916
 2060WAT      O 6721   1.689   4.646   4.336
 2060WAT     H1 6722   1.784   4.617   4.344
 2060WAT     H2 6723   1.681   4.711   4.261
 2061WAT      O 6724   1.641   4.832   4.156
 2061WAT     H1 6725   1.727   4.834   4.104
 2061WAT     H2 6726   1.655   4.879   4.244
 2062WAT      O 6727   0.113   4.461   5.321
 2062WAT     H1 6728   0.201   4.448   5.366
 2062WAT     H2 6729   0.100   4.558   5.299
 2063WAT      O 6730   0.613   5.089   4.450
 2063WAT     H1 6731   0.564   5.002   4.459
 2063WAT     H2 6732   0.590   5.132   4.363
 2064WAT      O 6733   1.293   4.952   5.147
 2064WAT     H1 6734   1.330   4.879   5.089
 2064WAT     H2 6735   1.345   4.957   5.232
 2065WAT      O 6736   0.809   3.728   4.226
 2065WAT     H1 6737   0.849   3.819   4.217
 2065WAT     H2 6738   0.709   3.736   4.232
 2066WAT      O 6739   0.197   4.700   4.988
 2066WAT     H1 6740   0.286   4.655   4.974
 2066WAT     H2 6741   0.124   4.635   4.969
 2067WAT      O 6742   1.525   4.723   3.914
 2067WAT     H1 6743   1.462   4.647   3.927
 2067WAT     H2 6744   1.573   4.741   4.000
 2068WAT      O 6745   1.187   5.516   5.340
 2068WAT     H1 6746   1.211   5.576   5.264
 2068WAT     H2 6747   1.194   5.421   5.310
 2069WAT      O 6748   0.317   3.975   5.525
 2069WAT     H1 6749   0.388   4.046   5.531
 2069WAT     H2 6750   0.229   4.014   5.553
 2070WAT      O 6751   1.466   5.141   4.677
 2070WAT     H1 6752   1.407   5.147   4.757
 2070WAT     H2 6753   1.451   5.053   4.631
 2071WAT      O 6754   1.667   5.438   4.296
 2071WAT     H1 6755   1.626   5.415   4.208
 2071WAT     H2 6756   1.649   5.364   4.361
 2072WAT      O 6757   0.598   4.453   3.994
 2072WAT     H1 6758   0.622   4.522   3.926
 2072WAT     H2 6759   0.520   4.486   4.048
 2073WAT      O 6760   1.281   4.069   4.668
 2073WAT     H1 6761   1.195   4.019   4.655
 2073WAT     H2 6762   1.343   4.015   4.724
 2074WAT      O 6763   1.576   5.386   4.031
 2074WAT     H1 6764   1.665   5.432   4.034
 2074WAT     H2 6765   1.555   5.362   3.936
 2075WAT      O 6766   0.807   4.329   5.189
 2075WAT     H1 6767   0.760   4.326   5.278
 2075WAT     H2 6768   0.756   4.274   5.123
 2076WAT      O 6769   1.394   4.193   5.398
 2076WAT     H1 6770   1.374   4.236   5.486
 2076WAT     H2 6771   1.472   4.131   5.407
 2077WAT      O 6772   0.973   4.614   5.296
 2077WAT     H1 6773   1.019   4.530   5.267
 2077WAT     H2 6774   0.917   4.648   5.221
 2078WAT      O 6775   0.991   4.134   4.966
 2078WAT     H1 6776   0.914   4.168   5.020
 2078WAT     H2 6777   0.957   4.083   4.887
 2079WAT      O 6778   1.041   4.425   4.153
 2079WAT     H1 6779   1.067   4.421   4.249
 2079WAT     H2 6780   0.956   4.374   4.139
 2080WAT      O 6781   0.076   4.535   4.513
 2080WAT     H1 6782   0.175   4.523   4.522
 2080WAT     H2 6783   0.052   4.630   4.534
 2081WAT      O 6784   0.130   5.545   5.295
 2081WAT     H1 6785   0.120   5.530   5.394
 2081WAT     H2 6786   0.044   5.581   5.259
 2082WAT      O 6787   0.865   4.072   3.919
 2082WAT     H1 6788   0.924   4.135   3.870
 2082WAT     H2 6789   0.884   3.978   3.890
 2083WAT      O 6790   1.719   4.309   5.555
 2083WAT     H1 6791   1.693   4.398   5.519
 2083WAT     H2 6792   1.717   4.241   5.482
 2084WAT      O 6793   1.362   4.868   4.269
 2084WAT     H1 6794   1.445   4.839   4.221
 2084WAT     H2 6795   1.313   4.935   4.213
 2085WAT      O 6796   0.550   3.920   4.609
 2085WAT     H1 6797   0.545   3.915   4.709
 2085WAT     H2 6798   0.552   4.016   4.580
 2086WAT      O 6799   1.008   5.180   4.201
 2086WAT     H1 6800   0.962   5.252   4.149
 2086WAT     H2 6801   1.004   5.200   4.299
 2087WAT      O 6802   0.351   5.525   4.577
 2087WAT     H1 6803   0.401   5.439   4.583
 2087WAT     H2 6804   0.416   5.602   4.574
 2088WAT      O 6805   1.795   4.790   4.597
 2088WAT     H1 6806   1.733   4.775   4.521
 2088WAT     H2 6807   1.743   4.801   4.682
 2089WAT      O 6808   1.227   5.274   5.230
 2089WAT     H1 6809   1.233   5.197   5.294
 2089WAT     H2 6810   1.175   5.248   5.150
 2090WAT      O 6811   0.321   4.667   3.966
 2090WAT     H1 6812   0.403   4.706   3.924
 2090WAT     H2 6813   0.294   4.585   3.917
 2091WAT      O 6814   1.458   4.459   4.452
 2091WAT     H1 6815   1.453   4.394   4.527
 2091WAT     H2 6816   1.538   4.518   4.465
 2092WAT      O 6817   0.461   4.990   5.451
 2092WAT     H1 6818   0.411   4.991   5.365
 2092WAT     H2 6819   0.398   4.972   5.527
 2093WAT      O 6820   1.111   5.500   3.961
 2093WAT     H1 6821   1.051   5.438   4.011
 2093WAT     H2 6822   1.142   5.456   3.876
 2094WAT      O 6823   0.202   4.009   5.222
 2094WAT     H1 6824   0.122   4.069   5.209
 2094WAT     H2 6825   0.192   3.960   5.308
 2095WAT      O 6826   1.632   5.101   3.805
 2095WAT     H1 6827   1.600   5.195   3.795
 2095WAT     H2 6828   1.556   5.038   3.793
 2096WAT      O 6829   0.464   5.467   4.047
 2096WAT     H1 6830   0.497   5.506   4.133
 2096WAT     H2 6831   0.540   5.460   3.982
 2097WAT      O 6832   1.400   3.831   4.150
 2097WAT     H1 6833   1.376   3.794   4.060
 2097WAT     H2 6834   1.499   3.847   4.154
 2098WAT      O 6835   0.249   5.509   4.965
 2098WAT     H1 6836   0.306   5.444   5.015
 2098WAT     H2 6837   0.233   5.476   4.872
 2099WAT      O 6838   0.940   5.422   4.628
 2099WAT     H1 6839   1.020   5.365   4.649
 2099WAT     H2 6840   0.891   5.382   4.551
 2100WAT      O 6841   0.382   4.424   4.204
 2100WAT     H1 6842   0.427   4.334   4.201
 2100WAT     H2 6843   0.288   4.413   4.237
 2101WAT      O 6844   1.547   3.946   5.453
 2101WAT     H1 6845   1.542   3.983   5.545
 2101WAT     H2 6846   1.475   3.877   5.441
 2102WAT      O 6847   0.614   3.846   3.841
 2102WAT     H1 6848   0.712   3.824   3.848
 2102WAT     H2 6849   0.583   3.829   3.748
 2103WAT      O 6850   0.781   3.988   5.473
 2103WAT     H1 6851   0.848   3.927   5.516
 2103WAT     H2 6852   0.708   4.007   5.538
 2104WAT      O 6853   0.888   5.238   4.919
 2104WAT     H1 6854   0.865   5.213   4.825
 2104WAT     H2 6855   0.949   5.169   4.958
 2105WAT      O 6856   1.351   4.314   5.157
 2105WAT     H1 6857   1.379   4.271   5.242
 2105WAT     H2 6858   1.376   4.410   5.158
 2106WAT      O 6859   0.803   5.126   4.648
 2106WAT     H1 6860   0.893   5.140   4.606
 2106WAT     H2 6861   0.732   5.128   4.577
 2107WAT      O 6862   0.922   4.227   4.623
 2107WAT     H1 6863   0.897   4.218   4.527
 2107WAT     H2 6864   0.970   4.145   4.654
 2108WAT      O 6865   0.539   3.788   4.236
 2108WAT     H1 6866   0.458   3.789   4.294
 2108WAT     H2 6867   0.542   3.871   4.181
 2109WAT      O 6868   1.434   4.912   3.765
 2109WAT     H1 6869   1.466   4.836   3.822
 2109WAT     H2 6870   1.342   4.939   3.795
 2110WAT      O 6871   0.297   3.759   3.895
 2110WAT     H1 6872   0.346   3.843   3.874
 2110WAT     H2 6873   0.359   3.694   3.940
 2111WAT      O 6874   0.935   3.960   4.204
 2111WAT     H1 6875   0.887   4.001   4.126
 2111WAT     H2 6876   1.034   3.958   4.185
 2112WAT      O 6877   1.076   4.407   5.188
 2112WAT     H1 6878   0.996   4.346   5.191
 2112WAT     H2 6879   1.157   4.354   5.164
 2113WAT      O 6880   1.227   5.294   4.517
 2113WAT     H1 6881   1.248   5.368   4.452
 2113WAT     H2 6882   1.295   5.294   4.590
 2114WAT      O 6883   0.459   4.876   4.465
 2114WAT     H1 6884   0.388   4.849   4.530
 2114WAT     H2 6885   0.433   4.848   4.372
 2115WAT      O 6886   1.271   5.521   4.315
 2115WAT     H1 6887   1.315   5.585   4.251
 2115WAT     H2 6888   1.221   5.573   4.385
 2116WAT      O 6889   1.032   4.273   3.740
 2116WAT     H1 6890   0.991   4.355   3.701
 2116WAT     H2 6891   1.096   4.299   3.813
 2117WAT      O 6892   0.078   4.280   5.110
 2117WAT     H1 6893   0.170   4.279   5.069
 2117WAT     H2 6894   0.072   4.354   5.177
 2118WAT      O 6895   0.561   3.946   4.871
 2118WAT     H1 6896   0.599   3.862   4.908
 2118WAT     H2 6897   0.473   3.965   4.915
 2119WAT      O 6898   0.866   4.178   4.366
 2119WAT     H1 6899   0.834   4.250   4.304
 2119WAT     H2 6900   0.890   4.097   4.313
 2120WAT      O 6901   1.017   3.763   4.477
 2120WAT     H1 6902   0.945   3.768   4.408
 2120WAT     H2 6903   0.993   3.694   4.546
 2121WAT      O 6904   1.429   4.897   4.591
 2121WAT     H1 6905   1.374   4.813   4.584
 2121WAT     H2 6906   1.455   4.926   4.499
 2122WAT      O 6907   1.466   4.314   4.716
 2122WAT     H1 6908   1.436   4.219   4.723
 2122WAT     H2 6909   1.539   4.330   4.782
 2123WAT      O 6910   1.857   4.557   4.101
 2123WAT     H1 6911   1.899   4.493   4.165
 2123WAT     H2 6912   1.819   4.506   4.023
 2124WAT      O 6913   0.488   5.109   3.898
 2124WAT     H1 6914   0.401   5.094   3.945
 2124WAT     H2 6915   0.471   5.135   3.803
 2125WAT      O 6916   1.664   5.004   4.381
 2125WAT     H1 6917   1.763   5.012   4.395
 2125WAT     H2 6918   1.619   5.088   4.412
 2126WAT      O 6919   1.390   4.299   3.802
 2126WAT     H1 6920   1.336   4.278   3.883
 2126WAT     H2 6921   1.481   4.258   3.811
 2127WAT      O 6922   0.527   3.980   4.052
 2127WAT     H1 6923   0.554   3.921   3.977
 2127WAT     H2 6924   0.527   4.075   4.021
 2128WAT      O 6925   1.754   4.947   5.312
 2128WAT     H1 6926   1.845   4.908   5.299
 2128WAT     H2 6927   1.762   5.043   5.336
 2129WAT      O 6928   1.064   5.071   5.064
 2129WAT     H1 6929   0.984   5.048   5.119
 2129WAT     H2 6930   1.147   5.045   5.113
 2130WAT      O 6931   1.592   5.353   5.349
 2130WAT     H1 6932   1.619   5.387   5.259
 2130WAT     H2 6933   1.671   5.315   5.395
 2131WAT      O 6934   1.111   4.919   4.824
 2131WAT     H1 6935   1.071   4.963   4.905
 2131WAT     H2 6936   1.070   4.956   4.741
 2132WAT      O 6937   1.638   4.823   4.803
 2132WAT     H1 6938   1.643   4.904   4.862
 2132WAT     H2 6939   1.552   4.825   4.752
 2133WAT      O 6940   0.915   3.813   5.126
 2133WAT     H1 6941   0.940   3.793   5.031
 2133WAT     H2 6942   0.987   3.869   5.168
 2134WAT      O 6943   0.980   4.840   5.443
 2134WAT     H1 6944   0.881   4.846   5.453
 2134WAT     H2 6945   1.003   4.760   5.387
 2135WAT      O 6946   0.705   4.774   4.092
 2135WAT     H1 6947   0.691   4.781   4.191
 2135WAT     H2 6948   0.789   4.723   4.074
 2136WAT      O 6949   0.410   4.537   4.975
 2136WAT     H1 6950   0.496   4.549   5.025
 2136WAT     H2 6951   0.368   4.450   5.002
 2137WAT      O 6952   1.274   4.110   4.986
 2137WAT     H1 6953   1.295   4.184   5.050
 2137WAT     H2 6954   1.185   4.127   4.943
 2138WAT      O 6955   0.064   5.288   5.055
 2138WAT     H1 6956   0.018   5.370   5.021
 2138WAT     H2 6957   0.162   5.307   5.064
 2139WAT      O 6958   0.367   4.824   4.225
 2139WAT     H1 6959   0.360   4.907   4.169
 2139WAT     H2 6960   0.371   4.744   4.165
 2140WAT      O 6961   0.566   4.261   4.589
 2140WAT     H1 6962   0.578   4.327   4.515
 2140WAT     H2 6963   0.612   4.295   4.672
 2141WAT      O 6964   1.252   5.072   4.112
 2141WAT     H1 6965   1.302   5.149   4.152
 2141WAT     H2 6966   1.157   5.074   4.144
 2142WAT      O 6967   1.272   5.169   4.866
 2142WAT     H1 6968   1.319   5.182   4.953
 2142WAT     H2 6969   1.206   5.095   4.875
 2143WAT      O 6970   1.582   4.363   4.196
 2143WAT     H1 6971   1.551   4.424   4.269
 2143WAT     H2 6972   1.632   4.415   4.127
 2144WAT      O 6973   0.354   5.234   5.053
 2144WAT     H1 6974   0.333   5.190   4.966
 2144WAT     H2 6975   0.451   5.260   5.056
 2145WAT      O 6976   0.402   4.475   5.322
 2145WAT     H1 6977   0.470   4.530   5.275
 2145WAT     H2 6978   0.442   4.387   5.349
 2146WAT      O 6979   1.587   4.503   5.394
 2146WAT     H1 6980   1.495   4.541   5.389
 2146WAT     H2 6981   1.647   4.550   5.329
 2147WAT      O 6982   1.013   3.829   5.494
 2147WAT     H1 6983   1.019   3.914   5.442
 2147WAT     H2 6984   1.045   3.753   5.437
 2148WAT      O 6985   0.504   3.774   5.464
 2148WAT     H1 6986   0.462   3.717   5.394
 2148WAT     H2 6987   0.438   3.843   5.496
 2149WAT      O 6988   0.573   4.594   4.753
 2149WAT     H1 6989   0.617   4.683   4.744
 2149WAT     H2 6990   0.510   4.594   4.830
 2150WAT      O 6991   1.360   4.586   4.769
 2150WAT     H1 6992   1.285   4.586   4.703
 2150WAT     H2 6993   1.397   4.494   4.778
 2151WAT      O 6994   1.209   4.249   3.999
 2151WAT     H1 6995   1.222   4.165   4.053
 2151WAT     H2 6996   1.180   4.323   4.059
 2152WAT      O 6997   0.307   3.937   4.955
 2152WAT     H1 6998   0.284   3.974   5.045
 2152WAT     H2 6999   0.277   3.842   4.949
 2153WAT      O 7000   0.037   5.034   5.006
 2153WAT     H1 7001   0.090   4.985   5.074
 2153WAT     H2 7002   0.059   5.132   5.011
 2154WAT      O 7003   0.732   4.358   4.788
 2154WAT     H1 7004   0.791   4.332   4.712
 2154WAT     H2 7005   0.704   4.454   4.777
 2155WAT      O 7006   1.728   4.659   5.578
 2155WAT     H1 7007   1.682   4.652   5.489
 2155WAT     H2 7008   1.666   4.703   5.644
 2156WAT      O 7009   0.307   3.787   4.342
 2156WAT     H1 7010   0.296   3.881   4.375
 2156WAT     H2 7011   0.302   3.724   4.419
 2157WAT      O 7012   1.622   4.091   4.098
 2157WAT     H1 7013   1.624   4.015   4.162
 2157WAT     H2 7014   1.574   4.168   4.138
 2158WAT      O 7015   1.023   4.490   4.690
 2158WAT     H1 7016   1.038   4.511   4.786
 2158WAT     H2 7017   0.993   4.395   4.681
 2159WAT      O 7018   0.980   5.297   5.424
 2159WAT     H1 7019   0.960   5.341   5.336
 2159WAT     H2 7020   1.019   5.206   5.408
 2160WAT      O 7021   1.859   5.242   5.329
 2160WAT     H1 7022   1.873   5.269   5.234
 2160WAT     H2 7023   1.942   5.264   5.382
 2161WAT      O 7024   0.350   4.622   5.528
 2161WAT     H1 7025   0.426   4.666   5.576
 2161WAT     H2 7026   0.385   4.575   5.446
 2162WAT      O 7027   1.540   3.998   3.849
 2162WAT     H1 7028   1.479   3.923   3.872
 2162WAT     H2 7029   1.562   4.050   3.932
 2163WAT      O 7030   1.303   4.562   3.766
 2163WAT     H1 7031   1.337   4.469   3.781
 2163WAT     H2 7032   1.321   4.589   3.671
 2164WAT      O 7033   1.068   5.057   4.573
 2164WAT     H1 7034   1.075   4.973   4.518
 2164WAT     H2 7035   1.130   5.126   4.537
 2165WAT      O 7036   0.319   4.534   4.673
 2165WAT     H1 7037   0.412   4.570   4.678
 2165WAT     H2 7038   0.313   4.449   4.725
 2166WAT      O 7039   0.339   4.233   4.730
 2166WAT     H1 7040   0.287   4.150   4.713
 2166WAT     H2 7041   0.416   4.238   4.666
 2167WAT      O 7042   1.138   4.104   5.402
 2167WAT     H1 7043   1.093   4.167   5.466
 2167WAT     H2 7044   1.231   4.135   5.385
 2168WAT      O 7045   1.160   3.931   5.201
 2168WAT     H1 7046   1.160   3.995   5.278
 2168WAT     H2 7047   1.188   3.979   5.118
 2169WAT      O 7048   0.008   5.050   3.924
 2169WAT     H1 7049  -0.085   5.071   3.893
 2169WAT     H2 7050   0.018   4.951   3.937
 2170WAT      O 7051   0.088   5.525   4.651
 2170WAT     H1 7052   0.046   5.439   4.624
 2170WAT     H2 7053   0.182   5.528   4.617
 2171WAT      O 7054   0.504   5.292   4.634
 2171WAT     H1 7055   0.570   5.366   4.643
 2171WAT     H2 7056   0.548   5.213   4.592
 2172WAT      O 7057   1.002   4.520   4.962
 2172WAT     H1 7058   1.043   4.488   5.048
 2172WAT     H2 7059   0.906   4.493   4.959
 2173WAT      O 7060   0.040   4.268   4.838
 2173WAT     H1 7061   0.125   4.235   4.797
 2173WAT     H2 7062   0.053   4.283   4.936
 2174WAT      O 7063   0.189   4.244   5.446
 2174WAT     H1 7064   0.248   4.204   5.376
 2174WAT     H2 7065   0.131   4.315   5.405
 2175WAT      O 7066   1.369   4.674   5.384
 2175WAT     H1 7067   1.408   4.763   5.404
 2175WAT     H2 7068   1.379   4.654   5.287
 2176WAT      O 7069   0.815   4.296   4.049
 2176WAT     H1 7070   0.822   4.207   4.003
 2176WAT     H2 7071   0.721   4.330   4.041
 2177WAT      O 7072   1.657   4.328   4.930
 2177WAT     H1 7073   1.619   4.259   4.992
 2177WAT     H2 7074   1.739   4.292   4.886
 2178WAT      O 7075   0.252   5.288   5.468
 2178WAT     H1 7076   0.222   5.345   5.544
 2178WAT     H2 7077   0.245   5.191   5.494
 2179WAT      O 7078   0.671   4.188   4.993
 2179WAT     H1 7079   0.637   4.099   4.963
 2179WAT     H2 7080   0.697   4.242   4.913
 2180WAT      O 7081   0.930   5.402   5.189
 2180WAT     H1 7082   0.906   5.384   5.094
 2180WAT     H2 7083   0.960   5.496   5.199
 2181WAT      O 7084   0.473   4.224   3.915
 2181WAT     H1 7085   0.534   4.304   3.919
 2181WAT     H2 7086   0.378   4.255   3.922
 2182WAT      O 7087   0.159   4.861   5.190
 2182WAT     H1 7088   0.181   4.800   5.266
 2182WAT     H2 7089   0.169   4.812   5.104
 2183WAT      O 7090   1.347   4.783   4.958
 2183WAT     H1 7091   1.371   4.720   4.884
 2183WAT     H2 7092   1.257   4.823   4.940
 2184WAT      O 7093   1.302   4.579   4.033
 2184WAT     H1 7094   1.216   4.548   4.075
 2184WAT     H2 7095   1.298   4.565   3.934
 2185WAT      O 7096   1.759   5.471   4.878
 2185WAT     H1 7097   1.820   5.501   4.805
 2185WAT     H2 7098   1.721   5.382   4.856
 2186WAT      O 7099   1.252   5.455   4.852
 2186WAT     H1 7100   1.336   5.460   4.798
 2186WAT     H2 7101   1.229   5.359   4.870
 2187WAT      O 7102   0.083   4.982   4.746
 2187WAT     H1 7103   0.078   4.981   4.846
 2187WAT     H2 7104   0.000   4.941   4.708
 2188WAT      O 7105   0.688   5.386   5.440
 2188WAT     H1 7106   0.632   5.467   5.449
 2188WAT     H2 7107   0.740   5.390   5.354
 2189WAT      O 7108   1.726   3.859   4.247
 2189WAT     H1 7109   1.799   3.842   4.180
 2189WAT     H2 7110   1.695   3.772   4.285
 2190WAT      O 7111   1.388   5.297   4.201
 2190WAT     H1 7112   1.455   5.309   4.127
 2190WAT     H2 7113   1.348   5.386   4.224
 2191WAT      O 7114   0.130   5.518   5.575
 2191WAT     H1 7115   0.089   5.444   5.628
 2191WAT     H2 7116   0.194   5.569   5.633
 2192WAT      O 7117   1.280   4.651   4.396
 2192WAT     H1 7118   1.340   4.570   4.398
 2192WAT     H2 7119   1.320   4.720   4.336
 2193WAT      O 7120   0.830   4.997   5.146
 2193WAT     H1 7121   0.825   5.030   5.241
 2193WAT     H2 7122   0.744   5.016   5.100
 2194WAT      O 7123   0.672   5.340   3.878
 2194WAT     H1 7124   0.681   5.350   3.779
 2194WAT     H2 7125   0.632   5.251   3.899
 2195WAT      O 7126   1.650   5.444   5.118
 2195WAT     H1 7127   1.703   5.454   5.034
 2195WAT     H2 7128   1.623   5.534   5.152
 2196WAT      O 7129   1.841   3.899   4.687
 2196WAT     H1 7130   1.880   3.814   4.651
 2196WAT     H2 7131   1.743   3.901   4.668
 2197WAT      O 7132   0.263   4.050   4.444
 2197WAT     H1 7133   0.184   4.101   4.410
 2197WAT     H2 7134   0.254   4.035   4.542
 2198WAT      O 7135   1.194   5.336   3.755
 2198WAT     H1 7136   1.200   5.243   3.792
 2198WAT     H2 7137   1.135   5.336   3.675
 2199WAT      O 7138   0.822   4.726   5.096
 2199WAT     H1 7139   0.862   4.725   5.004
 2199WAT     H2 7140   0.832   4.818   5.136
 2200WAT      O 7141   0.916   4.634   4.015
 2200WAT     H1 7142   0.979   4.672   3.947
 2200WAT     H2 7143   0.956   4.551   4.054
 2201WAT      O 7144   1.504   5.331   3.768
 2201WAT     H1 7145   1.412   5.368   3.775
 2201WAT     H2 7146   1.542   5.351   3.678
 2202WAT      O 7147   0.372   5.012   5.214
 2202WAT     H1 7148   0.359   5.105   5.180
 2202WAT     H2 7149   0.288   4.960   5.201
 2203WAT      O 7150   1.614   5.016   5.013
 2203WAT     H1 7151   1.674   5.019   5.093
 2203WAT     H2 7152   1.539   5.080   5.026
 2204WAT      O 7153   1.039   4.822   4.420
 2204WAT     H1 7154   0.969   4.775   4.474
 2204WAT     H2 7155   1.098   4.754   4.377
 2205WAT      O 7156   1.014   3.960   4.695
 2205WAT     H1 7157   1.006   3.924   4.602
 2205WAT     H2 7158   1.012   3.884   4.760
 2206WAT      O 7159   0.590   5.211   4.215
 2206WAT     H1 7160   0.632   5.153   4.145
 2206WAT     H2 7161   0.546   5.290   4.171
 2207WAT      O 7162   1.709   4.109   5.105
 2207WAT     H1 7163   1.782   4.178   5.109
 2207WAT     H2 7164   1.737   4.034   5.046
 2208WAT      O 7165   0.255   5.072   4.014
 2208WAT     H1 7166   0.159   5.073   3.987
 2208WAT     H2 7167   0.267   5.125   4.098
 2209WAT      O 7168   0.105   4.737   5.450
 2209WAT     H1 7169   0.028   4.704   5.504
 2209WAT     H2 7170   0.190   4.707   5.492
 2210WAT      O 7171   0.672   3.927   5.213
 2210WAT     H1 7172   0.762   3.911   5.173
 2210WAT     H2 7173   0.680   3.932   5.312
 2211WAT      O 7174   0.075   4.069   3.757
 2211WAT     H1 7175  -0.017   4.041   3.728
 2211WAT     H2 7176   0.106   4.146   3.701
 2212WAT      O 7177   1.440   4.580   5.122
 2212WAT     H1 7178   1.383   4.632   5.059
 2212WAT     H2 7179   1.536   4.592   5.098
 2213WAT      O 7180   0.072   3.890   4.042
 2213WAT     H1 7181   0.055   3.973   3.988
 2213WAT     H2 7182   0.162   3.853   4.020
 2214WAT      O 7183   1.183   5.059   3.843
 2214WAT     H1 7184   1.084   5.048   3.845
 2214WAT     H2 7185   1.217   5.074   3.936
 2215WAT      O 7186   0.613   4.566   5.155
 2215WAT     H1 7187   0.669   4.647   5.138
 2215WAT     H2 7188   0.672   4.486   5.158
 2216WAT      O 7189   1.493   5.491   4.683
 2216WAT     H1 7190   1.526   5.555   4.614
 2216WAT     H2 7191   1.559   5.485   4.758
 2217WAT      O 7192   0.716   4.289   5.432
 2217WAT     H1 7193   0.735   4.354   5.506
 2217WAT     H2 7194   0.776   4.209   5.441
 2218WAT      O 7195   1.450   4.944   5.357
 2218WAT     H1 7196   1.441   4.934   5.456
 2218WAT     H2 7197   1.546   4.937   5.331
 2219WAT      O 7198   0.390   5.465   5.284
 2219WAT     H1 7199   0.299   5.506   5.282
 2219WAT     H2 7200   0.383   5.371   5.316
 2220WAT      O 7201   1.674   4.607   4.978
 2220WAT     H1 7202   1.647   4.518   4.941
 2220WAT     H2 7203   1.675   4.675   4.905
 2221WAT      O 7204   1.225   4.049   4.173
 2221WAT     H1 7205   1.290   3.975   4.162
 2221WAT     H2 7206   1.245   4.099   4.257
 2222WAT      O 7207   0.594   4.469   4.376
 2222WAT     H1 7208   0.644   4.554   4.357
 2222WAT     H2 7209   0.506   4.471   4.328
 2223WAT      O 7210   1.777   4.066   5.366
 2223WAT     H1 7211   1.760   4.097   5.272
 2223WAT     H2 7212   1.693   4.029   5.404
 2224WAT      O 7213   1.730   4.658   5.241
 2224WAT     H1 7214   1.768   4.749   5.256
 2224WAT     H2 7215   1.722   4.641   5.142
 2225WAT      O 7216   0.859   5.098   3.740
 2225WAT     H1 7217   0.813   5.113   3.828
 2225WAT     H2 7218   0.903   5.183   3.710
 2226WAT      O 7219   0.661   5.514   4.677
 2226WAT     H1 7220   0.615   5.602   4.664
 2226WAT     H2 7221   0.760   5.526   4.670
 2227WAT      O 7222   0.859   4.680   4.585
 2227WAT     H1 7223   0.913   4.611   4.633
 2227WAT     H2 7224   0.827   4.749   4.651
 2228WAT      O 7225   1.083   4.708   3.811
 2228WAT     H1 7226   1.060   4.761   3.729
 2228WAT     H2 7227   1.164   4.652   3.792
 2229WAT      O 7228   1.861   5.293   4.575
 2229WAT     H1 7229   1.790   5.281   4.505
 2229WAT     H2 7230   1.862   5.214   4.635
 2230WAT      O 7231   0.221   5.038   5.568
 2230WAT     H1 7232   0.156   4.965   5.547
 2230WAT     H2 7233   0.225   5.052   5.666
 2231WAT      O 7234   0.079   4.964   4.377
 2231WAT     H1 7235   0.078   4.917   4.465
 2231WAT     H2 7236   0.161   4.936   4.326
 2232WAT      O 7237   0.672   5.115   5.348
 2232WAT     H1 7238   0.594   5.065   5.386
 2232WAT     H2 7239   0.669   5.210   5.379
 2233WAT      O 7240   1.824   3.916   4.951
 2233WAT     H1 7241   1.820   3.826   4.995
 2233WAT     H2 7242   1.827   3.905   4.852
 2234WAT      O 7243   0.428   4.148   4.244
 2234WAT     H1 7244   0.458   4.076   4.182
 2234WAT     H2 7245   0.389   4.108   4.327
 2235WAT      O 7246   1.705   5.211   4.828
 2235WAT     H1 7247   1.612   5.186   4.801
 2235WAT     H2 7248   1.731   5.161   4.910
 2236WAT      O 7249   0.317   4.271   5.004
 2236WAT     H1 7250   0.355   4.212   5.076
 2236WAT     H2 7251   0.357   4.245   4.916
 2237WAT      O 7252   0.812   5.310   4.411
 2237WAT     H1 7253   0.844   5.320   4.317
 2237WAT     H2 7254   0.733   5.248   4.413
 2238WAT      O 7255   1.424   3.938   4.836
 2238WAT     H1 7256   1.476   3.873   4.891
 2238WAT     H2 7257   1.375   4.001   4.897
 2239WAT      O 7258   1.001   3.758   4.878
 2239WAT     H1 7259   0.938   3.686   4.847
 2239WAT     H2 7260   1.094   3.722   4.878
 2240WAT      O 7261   0.770   5.054   4.025
 2240WAT     H1 7262   0.724   4.967   4.042
 2240WAT     H2 7263   0.861   5.051   4.066
 2241WAT      O 7264   0.618   5.291   5.008
 2241WAT     H1 7265   0.613   5.373   5.065
 2241WAT     H2 7266   0.707   5.288   4.963
 2242WAT      O 7267   1.352   3.776   3.892
 2242WAT     H1 7268   1.387   3.735   3.808
 2242WAT     H2 7269   1.262   3.738   3.912
 2243WAT      O 7270   1.300   4.177   4.415
 2243WAT     H1 7271   1.241   4.257   4.419
 2243WAT     H2 7272   1.315   4.142   4.508
 2244WAT      O 7273   1.593   3.945   4.606
 2244WAT     H1 7274   1.509   3.944   4.660
 2244WAT     H2 7275   1.595   4.028   4.550
 2245WAT      O 7276   0.039   4.801   4.024
 2245WAT     H1 7277   0.138   4.790   4.015
 2245WAT     H2 7278  -0.001   4.715   4.056
 2246WAT      O 7279   0.875   5.370   4.061
 2246WAT     H1 7280   0.798   5.335   4.007
 2246WAT     H2 7281   0.843   5.441   4.123
 2247WAT      O 7282   0.230   4.352   5.699
 2247WAT     H1 7283   0.137   4.350   5.736
 2247WAT     H2 7284   0.231   4.313   5.607
 2248WAT      O 7285   0.225   3.999   6.582
 2248WAT     H1 7286   0.260   3.982   6.674
 2248WAT     H2 7287   0.137   3.954   6.570
 2249WAT      O 7288   0.019   4.092   6.233
 2249WAT     H1 7289  -0.063   4.135   6.272
 2249WAT     H2 7290  -0.009   4.019   6.170
 2250WAT      O 7291   0.569   4.999   6.751
 2250WAT     H1 7292   0.476   4.992   6.714
 2250WAT     H2 7293   0.580   5.088   6.795
 2251WAT      O 7294   1.555   5.235   6.289
 2251WAT     H1 7295   1.498   5.219   6.370
 2251WAT     H2 7296   1.496   5.245   6.209
 2252WAT      O 7297   1.135   4.427   6.303
 2252WAT     H1 7298   1.192   4.505   6.278
 2252WAT     H2 7299   1.075   4.453   6.379
 2253WAT      O 7300   1.755   4.331   5.817
 2253WAT     H1 7301   1.743   4.318   5.718
 2253WAT     H2 7302   1.725   4.250   5.866
 2254WAT      O 7303   0.768   4.868   6.609
 2254WAT     H1 7304   0.690   4.885   6.669
 2254WAT     H2 7305   0.802   4.955   6.573
 2255WAT      O 7306   0.685   4.736   6.251
 2255WAT     H1 7307   0.754   4.720   6.321
 2255WAT     H2 7308   0.612   4.793   6.289
 2256WAT      O 7309   0.335   5.159   6.647
 2256WAT     H1 7310   0.257   5.128   6.594
 2256WAT     H2 7311   0.393   5.217   6.590
 2257WAT      O 7312   1.603   4.171   6.323
 2257WAT     H1 7313   1.529   4.217   6.273
 2257WAT     H2 7314   1.654   4.239   6.376
 2258WAT      O 7315   0.231   5.437   6.069
 2258WAT     H1 7316   0.265   5.514   6.123
 2258WAT     H2 7317   0.275   5.437   5.979
 2259WAT      O 7318   0.230   5.158   6.124
 2259WAT     H1 7319   0.204   5.254   6.124
 2259WAT     H2 7320   0.159   5.104   6.169
 2260WAT      O 7321   0.240   4.815   6.472
 2260WAT     H1 7322   0.254   4.731   6.524
 2260WAT     H2 7323   0.185   4.879   6.527
 2261WAT      O 7324   0.620   5.510   7.025
 2261WAT     H1 7325   0.528   5.493   7.060
 2261WAT     H2 7326   0.648   5.602   7.051
 2262WAT      O 7327   0.606   4.688   5.709
 2262WAT     H1 7328   0.613   4.772   5.655
 2262WAT     H2 7329   0.652   4.701   5.797
 2263WAT      O 7330   0.122   4.367   6.149
 2263WAT     H1 7331   0.077   4.279   6.166
 2263WAT     H2 7332   0.121   4.421   6.233
 2264WAT      O 7333   1.842   5.491   5.945
 2264WAT     H1 7334   1.896   5.462   6.025
 2264WAT     H2 7335   1.872   5.581   5.916
 2265WAT      O 7336   0.027   5.320   5.703
 2265WAT     H1 7337   0.008   5.224   5.724
 2265WAT     H2 7338  -0.006   5.378   5.778
 2266WAT      O 7339   1.689   4.646   6.198
 2266WAT     H1 7340   1.784   4.617   6.206
 2266WAT     H2 7341   1.681   4.711   6.123
 2267WAT      O 7342   1.641   4.832   6.018
 2267WAT     H1 7343   1.727   4.834   5.966
 2267WAT     H2 7344   1.655   4.879   6.106
 2268WAT      O 7345   0.613   5.089   6.312
 2268WAT     H1 7346   0.564   5.002   6.321
 2268WAT     H2 7347   0.590   5.132   6.225
 2269WAT      O 7348   0.809   3.728   6.088
 2269WAT     H1 7349   0.849   3.819   6.079
 2269WAT     H2 7350   0.709   3.736   6.094
 2270WAT      O 7351   0.197   4.700   6.850
 2270WAT     H1 7352   0.286   4.655   6.836
 2270WAT     H2 7353   0.124   4.635   6.831
 2271WAT      O 7354   1.525   4.723   5.776
 2271WAT     H1 7355   1.462   4.647   5.789
 2271WAT     H2 7356   1.573   4.741   5.862
 2272WAT      O 7357   1.466   5.141   6.539
 2272WAT     H1 7358   1.407   5.147   6.619
 2272WAT     H2 7359   1.451   5.053   6.493
 2273WAT      O 7360   1.667   5.438   6.158
 2273WAT     H1 7361   1.626   5.415   6.070
 2273WAT     H2 7362   1.649   5.364   6.223
 2274WAT      O 7363   0.598   4.453   5.856
 2274WAT     H1 7364   0.622   4.522   5.788
 2274WAT     H2 7365   0.520   4.486   5.910
 2275WAT      O 7366   1.281   4.069   6.530
 2275WAT     H1 7367   1.195   4.019   6.517
 2275WAT     H2 7368   1.343   4.015   6.586
 2276WAT      O 7369   1.576   5.386   5.893
 2276WAT     H1 7370   1.665   5.432   5.896
 2276WAT     H2 7371   1.555   5.362   5.798
 2277WAT      O 7372   0.807   4.329   7.051
 2277WAT     H1 7373   0.760   4.326   7.140
 2277WAT     H2 7374   0.756   4.274   6.985
 2278WAT      O 7375   0.991   4.134   6.828
 2278WAT     H1 7376   0.914   4.168   6.882
 2278WAT     H2 7377   0.957   4.083   6.749
 2279WAT      O 7378   1.041   4.425   6.015
 2279WAT     H1 7379   1.067   4.421   6.111
 2279WAT     H2 7380   0.956   4.374   6.001
 2280WAT      O 7381   0.076   4.535   6.375
 2280WAT     H1 7382   0.175   4.523   6.384
 2280WAT     H2 7383   0.052   4.630   6.396
 2281WAT      O 7384   0.130   5.545   7.157
 2281WAT     H1 7385   0.120   5.530   7.256
 2281WAT     H2 7386   0.044   5.581   7.121
 2282WAT      O 7387   0.865   4.072   5.781
 2282WAT     H1 7388   0.924   4.135   5.732
 2282WAT     H2 7389   0.884   3.978   5.752
 2283WAT      O 7390   1.362   4.868   6.131
 2283WAT     H1 7391   1.445   4.839   6.083
 2283WAT     H2 7392   1.313   4.935   6.075
 2284WAT      O 7393   0.550   3.920   6.471
 2284WAT     H1 7394   0.545   3.915   6.571
 2284WAT     H2 7395   0.552   4.016   6.442
 2285WAT      O 7396   1.008   5.180   6.063
 2285WAT     H1 7397   0.962   5.252   6.011
 2285WAT     H2 7398   1.004   5.200   6.161
 2286WAT      O 7399   0.351   5.525   6.439
 2286WAT     H1 7400   0.401   5.439   6.445
 2286WAT     H2 7401   0.416   5.602   6.436
 2287WAT      O 7402   1.795   4.790   6.459
 2287WAT     H1 7403   1.733   4.775   6.383
 2287WAT     H2 7404   1.743   4.801   6.544
 2288WAT      O 7405   0.321   4.667   5.828
 2288WAT     H1 7406   0.403   4.706   5.786
 2288WAT     H2 7407   0.294   4.585   5.779
 2289WAT      O 7408   1.458   4.459   6.314
 2289WAT     H1 7409   1.453   4.394   6.389
 2289WAT     H2 7410   1.538   4.518   6.327
 2290WAT      O 7411   1.111   5.500   5.823
 2290WAT     H1 7412   1.051   5.438   5.873
 2290WAT     H2 7413   1.142   5.456   5.738
 2291WAT      O 7414   1.632   5.101   5.667
 2291WAT     H1 7415   1.600   5.195   5.657
 2291WAT     H2 7416   1.556   5.038   5.655
 2292WAT      O 7417   0.464   5.467   5.909
 2292WAT     H1 7418   0.497   5.506   5.995
 2292WAT     H2 7419   0.540   5.460   5.844
 2293WAT      O 7420   1.400   3.831   6.012
 2293WAT     H1 7421   1.376   3.794   5.922
 2293WAT     H2 7422   1.499   3.847   6.016
 2294WAT      O 7423   0.249   5.509   6.827
 2294WAT     H1 7424   0.306   5.444   6.877
 2294WAT     H2 7425   0.233   5.476   6.734
 2295WAT      O 7426   0.940   5.422   6.490
 2295WAT     H1 7427   1.020   5.365   6.511
 2295WAT     H2 7428   0.891   5.382   6.413
 2296WAT      O 7429   0.382   4.424   6.066
 2296WAT     H1 7430   0.427   4.334   6.063
 2296WAT     H2 7431   0.288   4.413   6.099
 2297WAT      O 7432   0.614   3.846   5.703
 2297WAT     H1 7433   0.712   3.824   5.710
 2297WAT     H2 7434   0.583   3.829   5.610
 2298WAT      O 7435   0.888   5.238   6.781
 2298WAT     H1 7436   0.865   5.213   6.687
 2298WAT     H2 7437   0.949   5.169   6.820
 2299WAT      O 7438   0.803   5.126   6.510
 2299WAT     H1 7439   0.893   5.140   6.468
 2299WAT     H2 7440   0.732   5.128   6.439
 2300WAT      O 7441   0.922   4.227   6.485
 2300WAT     H1 7442   0.897   4.218   6.389
 2300WAT     H2 7443   0.970   4.145   6.516
 2301WAT      O 7444   0.539   3.788   6.098
 2301WAT     H1 7445   0.458   3.789   6.156
 2301WAT     H2 7446   0.542   3.871   6.043
 2302WAT      O 7447   1.434   4.912   5.627
 2302WAT     H1 7448   1.466   4.836   5.684
 2302WAT     H2 7449   1.342   4.939   5.657
 2303WAT      O 7450   0.297   3.759   5.757
 2303WAT     H1 7451   0.346   3.843   5.736
 2303WAT     H2 7452   0.359   3.694   5.802
 2304WAT      O 7453   0.935   3.960   6.066
 2304WAT     H1 7454   0.887   4.001   5.988
 2304WAT     H2 7455   1.034   3.958   6.047
 2305WAT      O 7456   1.227   5.294   6.379
 2305WAT     H1 7457   1.248   5.368   6.314
 2305WAT     H2 7458   1.295   5.294   6.452
 2306WAT      O 7459   0.459   4.876   6.327
 2306WAT     H1 7460   0.388   4.849   6.392
 2306WAT     H2 7461   0.433   4.848   6.234
 2307WAT      O 7462   1.271   5.521   6.177
 2307WAT     H1 7463   1.315   5.585   6.113
 2307WAT     H2 7464   1.221   5.573   6.247
 2308WAT      O 7465   1.032   4.273   5.602
 2308WAT     H1 7466   0.991   4.355   5.563
 2308WAT     H2 7467   1.096   4.299   5.675
 2309WAT      O 7468   0.561   3.946   6.733
 2309WAT     H1 7469   0.599   3.862   6.770
 2309WAT     H2 7470   0.473   3.965   6.777
 2310WAT      O 7471   0.866   4.178   6.228
 2310WAT     H1 7472   0.834   4.250   6.166
 2310WAT     H2 7473   0.890   4.097   6.175
 2311WAT      O 7474   1.017   3.763   6.339
 2311WAT     H1 7475   0.945   3.768   6.270
 2311WAT     H2 7476   0.993   3.694   6.408
 2312WAT      O 7477   1.429   4.897   6.453
 2312WAT     H1 7478   1.374   4.813   6.446
 2312WAT     H2 7479   1.455   4.926   6.361
 2313WAT      O 7480   1.466   4.314   6.578
 2313WAT     H1 7481   1.436   4.219   6.585
 2313WAT     H2 7482   1.539   4.330   6.644
 2314WAT      O 7483   1.857   4.557   5.963
 2314WAT     H1 7484   1.899   4.493   6.027
 2314WAT     H2 7485   1.819   4.506   5.885
 2315WAT      O 7486   0.488   5.109   5.760
 2315WAT     H1 7487   0.401   5.094   5.807
 2315WAT     H2 7488   0.471   5.135   5.665
 2316WAT      O 7489   1.664   5.004   6.243
 2316WAT     H1 7490   1.763   5.012   6.257
 2316WAT     H2 7491   1.619   5.088   6.274
 2317WAT      O 7492   1.390   4.299   5.664
 2317WAT     H1 7493   1.336   4.278   5.745
 2317WAT     H2 7494   1.481   4.258   5.673
 2318WAT      O 7495   0.527   3.980   5.914
 2318WAT     H1 7496   0.554   3.921   5.839
 2318WAT     H2 7497   0.527   4.075   5.883
 2319WAT      O 7498   1.754   4.947   7.174
 2319WAT     H1 7499   1.845   4.908   7.161
 2319WAT     H2 7500   1.762   5.043   7.198
 2320WAT      O 7501   1.111   4.919   6.686
 2320WAT     H1 7502   1.071   4.963   6.767
 2320WAT     H2 7503   1.070   4.956   6.603
 2321WAT      O 7504   1.638   4.823   6.665
 2321WAT     H1 7505   1.643   4.904   6.724
 2321WAT     H2 7506   1.552   4.825   6.614
 2322WAT      O 7507   0.705   4.774   5.954
 2322WAT     H1 7508   0.691   4.781   6.053
 2322WAT     H2 7509   0.789   4.723   5.936
 2323WAT      O 7510   0.410   4.537   6.837
 2323WAT     H1 7511   0.496   4.549   6.887
 2323WAT     H2 7512   0.368   4.450   6.864
 2324WAT      O 7513   1.274   4.110   6.848
 2324WAT     H1 7514   1.295   4.184   6.912
 2324WAT     H2 7515   1.185   4.127   6.805
 2325WAT      O 7516   0.064   5.288   6.917
 2325WAT     H1 7517   0.018   5.370   6.883
 2325WAT     H2 7518   0.162   5.307   6.926
 2326WAT      O 7519   0.367   4.824   6.087
 2326WAT     H1 7520   0.360   4.907   6.031
 2326WAT     H2 7521   0.371   4.744   6.027
 2327WAT      O 7522   0.566   4.261   6.451
 2327WAT     H1 7523   0.578   4.327   6.377
 2327WAT     H2 7524   0.612   4.295   6.534
 2328WAT      O 7525   1.252   5.072   5.974
 2328WAT     H1 7526   1.302   5.149   6.014
 2328WAT     H2 7527   1.157   5.074   6.006
 2329WAT      O 7528   1.272   5.169   6.728
 2329WAT     H1 7529   1.319   5.182   6.815
 2329WAT     H2 7530   1.206   5.095   6.737
 2330WAT      O 7531   1.582   4.363   6.058
 2330WAT     H1 7532   1.551   4.424   6.131
 2330WAT     H2 7533   1.632   4.415   5.989
 2331WAT      O 7534   0.354   5.234   6.915
 2331WAT     H1 7535   0.333   5.190   6.828
 2331WAT     H2 7536   0.451   5.260   6.918
 2332WAT      O 7537   0.573   4.594   6.615
 2332WAT     H1 7538   0.617   4.683   6.606
 2332WAT     H2 7539   0.510   4.594   6.692
 2333WAT      O 7540   1.360   4.586   6.631
 2333WAT     H1 7541   1.285   4.586   6.565
 2333WAT     H2 7542   1.397   4.494   6.640
 2334WAT      O 7543   1.209   4.249   5.861
 2334WAT     H1 7544   1.222   4.165   5.915
 2334WAT     H2 7545   1.180   4.323   5.921
 2335WAT      O 7546   0.307   3.937   6.817
 2335WAT     H1 7547   0.284   3.974   6.907
 2335WAT     H2 7548   0.277   3.842   6.811
 2336WAT      O 7549   0.037   5.034   6.868
 2336WAT     H1 7550   0.090   4.985   6.936
 2336WAT     H2 7551   0.059   5.132   6.873
 2337WAT      O 7552   0.732   4.358   6.650
 2337WAT     H1 7553   0.791   4.332   6.574
 2337WAT     H2 7554   0.704   4.454   6.639
 2338WAT      O 7555   0.307   3.787   6.204
 2338WAT     H1 7556   0.296   3.881   6.237
 2338WAT     H2 7557   0.302   3.724   6.281
 2339WAT      O 7558   1.622   4.091   5.960
 2339WAT     H1 7559   1.624   4.015   6.024
 2339WAT     H2 7560   1.574   4.168   6.000
 2340WAT      O 7561   1.023   4.490   6.552
 2340WAT     H1 7562   1.038   4.511   6.648
 2340WAT     H2 7563   0.993   4.395   6.543
 2341WAT      O 7564   1.859   5.242   7.191
 2341WAT     H1 7565   1.873   5.269   7.096
 2341WAT     H2 7566   1.942   5.264   7.244
 2342WAT      O 7567   1.540   3.998   5.711
 2342WAT     H1 7568   1.479   3.923   5.734
 2342WAT     H2 7569   1.562   4.050   5.794
 2343WAT      O 7570   1.303   4.562   5.628
 2343WAT     H1 7571   1.337   4.469   5.643
 2343WAT     H2 7572   1.321   4.589   5.533
 2344WAT      O 7573   1.068   5.057   6.435
 2344WAT     H1 7574   1.075   4.973   6.380
 2344WAT     H2 7575   1.130   5.126   6.399
 2345WAT      O 7576   0.319   4.534   6.535
 2345WAT     H1 7577   0.412   4.570   6.540
 2345WAT     H2 7578   0.313   4.449   6.587
 2346WAT      O 7579   0.339   4.233   6.592
 2346WAT     H1 7580   0.287   4.150   6.575
 2346WAT     H2 7581   0.416   4.238   6.528
 2347WAT      O 7582   1.160   3.931   7.063
 2347WAT     H1 7583   1.160   3.995   7.140
 2347WAT     H2 7584   1.188   3.979   6.980
 2348WAT      O 7585   0.008   5.050   5.786
 2348WAT     H1 7586  -0.085   5.071   5.755
 2348WAT     H2 7587   0.018   4.951   5.799
 2349WAT      O 7588   0.088   5.525   6.513
 2349WAT     H1 7589   0.046   5.439   6.486
 2349WAT     H2 7590   0.182   5.528   6.479
 2350WAT      O 7591   0.504   5.292   6.496
 2350WAT     H1 7592   0.570   5.366   6.505
 2350WAT     H2 7593   0.548   5.213   6.454
 2351WAT      O 7594   1.002   4.520   6.824
 2351WAT     H1 7595   1.043   4.488   6.910
 2351WAT     H2 7596   0.906   4.493   6.821
 2352WAT      O 7597   0.040   4.268   6.700
 2352WAT     H1 7598   0.125   4.235   6.659
 2352WAT     H2 7599   0.053   4.283   6.798
 2353WAT      O 7600   0.815   4.296   5.911
 2353WAT     H1 7601   0.822   4.207   5.865
 2353WAT     H2 7602   0.721   4.330   5.903
 2354WAT      O 7603   1.657   4.328   6.792
 2354WAT     H1 7604   1.619   4.259   6.854
 2354WAT     H2 7605   1.739   4.292   6.748
 2355WAT      O 7606   0.671   4.188   6.855
 2355WAT     H1 7607   0.637   4.099   6.825
 2355WAT     H2 7608   0.697   4.242   6.775
 2356WAT      O 7609   0.930   5.402   7.051
 2356WAT     H1 7610   0.906   5.384   6.956
 2356WAT     H2 7611   0.960   5.496   7.061
 2357WAT      O 7612   0.473   4.224   5.777
 2357WAT     H1 7613   0.534   4.304   5.781
 2357WAT     H2 7614   0.378   4.255   5.784
 2358WAT      O 7615   0.159   4.861   7.052
 2358WAT     H1 7616   0.181   4.800   7.128
 2358WAT     H2 7617   0.169   4.812   6.966
 2359WAT      O 7618   1.347   4.783   6.820
 2359WAT     H1 7619   1.371   4.720   6.746
 2359WAT     H2 7620   1.257   4.823   6.802
 2360WAT      O 7621   1.302   4.579   5.895
 2360WAT     H1 7622   1.216   4.548   5.937
 2360WAT     H2 7623   1.298   4.565   5.796
 2361WAT      O 7624   1.759   5.471   6.740
 2361WAT     H1 7625   1.820   5.501   6.667
 2361WAT     H2 7626   1.721   5.382   6.718
 2362WAT      O 7627   1.252   5.455   6.714
 2362WAT     H1 7628   1.336   5.460   6.660
 2362WAT     H2 7629   1.229   5.359   6.732
 2363WAT      O 7630   0.083   4.982   6.608
 2363WAT     H1 7631   0.078   4.981   6.708
 2363WAT     H2 7632   0.000   4.941   6.570
 2364WAT      O 7633   1.726   3.859   6.109
 2364WAT     H1 7634   1.799   3.842   6.042
 2364WAT     H2 7635   1.695   3.772   6.147
 2365WAT      O 7636   1.388   5.297   6.063
 2365WAT     H1 7637   1.455   5.309   5.989
 2365WAT     H2 7638   1.348   5.386   6.086
 2366WAT      O 7639   1.280   4.651   6.258
 2366WAT     H1 7640   1.340   4.570   6.260
 2366WAT     H2 7641   1.320   4.720   6.198
 2367WAT      O 7642   0.672   5.340   5.740
 2367WAT     H1 7643   0.681   5.350   5.641
 2367WAT     H2 7644   0.632   5.251   5.761
 2368WAT      O 7645   1.841   3.899   6.549
 2368WAT     H1 7646   1.880   3.814   6.513
 2368WAT     H2 7647   1.743   3.901   6.530
 2369WAT      O 7648   0.263   4.050   6.306
 2369WAT     H1 7649   0.184   4.101   6.272
 2369WAT     H2 7650   0.254   4.035   6.404
 2370WAT      O 7651   1.194   5.336   5.617
 2370WAT     H1 7652   1.200   5.243   5.654
 2370WAT     H2 7653   1.135   5.336   5.537
 2371WAT      O 7654   0.822   4.726   6.958
 2371WAT     H1 7655   0.862   4.725   6.866
 2371WAT     H2 7656   0.832   4.818   6.998
 2372WAT      O 7657   0.916   4.634   5.877
 2372WAT     H1 7658   0.979   4.672   5.809
 2372WAT     H2 7659   0.956   4.551   5.916
 2373WAT      O 7660   1.504   5.331   5.630
 2373WAT     H1 7661   1.412   5.368   5.637
 2373WAT     H2 7662   1.542   5.351   5.540
 2374WAT      O 7663   1.614   5.016   6.875
 2374WAT     H1 7664   1.674   5.019   6.955
 2374WAT     H2 7665   1.539   5.080   6.888
 2375WAT      O 7666   1.039   4.822   6.282
 2375WAT     H1 7667   0.969   4.775   6.336
 2375WAT     H2 7668   1.098   4.754   6.239
 2376WAT      O 7669   1.014   3.960   6.557
 2376WAT     H1 7670   1.006   3.924   6.464
 2376WAT     H2 7671   1.012   3.884   6.622
 2377WAT      O 7672   0.590   5.211   6.077
 2377WAT     H1 7673   0.632   5.153   6.007
 2377WAT     H2 7674   0.546   5.290   6.033
 2378WAT      O 7675   1.709   4.109   6.967
 2378WAT     H1 7676   1.782   4.178   6.971
 2378WAT     H2 7677   1.737   4.034   6.908
 2379WAT      O 7678   0.255   5.072   5.876
 2379WAT     H1 7679   0.159   5.073   5.849
 2379WAT     H2 7680   0.267   5.125   5.960
 2380WAT      O 7681   0.672   3.927   7.075
 2380WAT     H1 7682   0.762   3.911   7.035
 2380WAT     H2 7683   0.680   3.932   7.174
 2381WAT      O 7684   0.075   4.069   5.619
 2381WAT     H1 7685  -0.017   4.041   5.590
 2381WAT     H2 7686   0.106   4.146   5.563
 2382WAT      O 7687   0.072   3.890   5.904
 2382WAT     H1 7688   0.055   3.973   5.850
 2382WAT     H2 7689   0.162   3.853   5.882
 2383WAT      O 7690   1.183   5.059   5.705
 2383WAT     H1 7691   1.084   5.048   5.707
 2383WAT     H2 7692   1.217   5.074   5.798
 2384WAT      O 7693   1.493   5.491   6.545
 2384WAT     H1 7694   1.526   5.555   6.476
 2384WAT     H2 7695   1.559   5.485   6.620
 2385WAT      O 7696   1.450   4.944   7.219
 2385WAT     H1 7697   1.441   4.934   7.318
 2385WAT     H2 7698   1.546   4.937   7.193
 2386WAT      O 7699   0.390   5.465   7.146
 2386WAT     H1 7700   0.299   5.506   7.144
 2386WAT     H2 7701   0.383   5.371   7.178
 2387WAT      O 7702   1.674   4.607   6.840
 2387WAT     H1 7703   1.647   4.518   6.803
 2387WAT     H2 7704   1.675   4.675   6.767
 2388WAT      O 7705   1.225   4.049   6.035
 2388WAT     H1 7706   1.290   3.975   6.024
 2388WAT     H2 7707   1.245   4.099   6.119
 2389WAT      O 7708   0.594   4.469   6.238
 2389WAT     H1 7709   0.644   4.554   6.219
 2389WAT     H2 7710   0.506   4.471   6.190
 2390WAT      O 7711   1.730   4.658   7.103
 2390WAT     H1 7712   1.768   4.749   7.118
 2390WAT     H2 7713   1.722   4.641   7.004
 2391WAT      O 7714   0.859   5.098   5.602
 2391WAT     H1 7715   0.813   5.113   5.690
 2391WAT     H2 7716   0.903   5.183   5.572
 2392WAT      O 7717   0.661   5.514   6.539
 2392WAT     H1 7718   0.615   5.602   6.526
 2392WAT     H2 7719   0.760   5.526   6.532
 2393WAT      O 7720   0.859   4.680   6.447
 2393WAT     H1 7721   0.913   4.611   6.495
 2393WAT     H2 7722   0.827   4.749   6.513
 2394WAT      O 7723   1.083   4.708   5.673
 2394WAT     H1 7724   1.060   4.761   5.591
 2394WAT     H2 7725   1.164   4.652   5.654
 2395WAT      O 7726   1.861   5.293   6.437
 2395WAT     H1 7727   1.790   5.281   6.367
 2395WAT     H2 7728   1.862   5.214   6.497
 2396WAT      O 7729   0.079   4.964   6.239
 2396WAT     H1 7730   0.078   4.917   6.327
 2396WAT     H2 7731   0.161   4.936   6.188
 2397WAT      O 7732   1.824   3.916   6.813
 2397WAT     H1 7733   1.820   3.826   6.857
 2397WAT     H2 7734   1.827   3.905   6.714
 2398WAT      O 7735   0.428   4.148   6.106
 2398WAT     H1 7736   0.458   4.076   6.044
 2398WAT     H2 7737   0.389   4.108   6.189
 2399WAT      O 7738   1.705   5.211   6.690
 2399WAT     H1 7739   1.612   5.186   6.663
 2399WAT     H2 7740   1.731   5.161   6.772
 2400WAT      O 7741   0.317   4.271   6.866
 2400WAT     H1 7742   0.355   4.212   6.938
 2400WAT     H2 7743   0.357   4.245   6.778
 2401WAT      O 7744   0.812   5.310   6.273
 2401WAT     H1 7745   0.844   5.320   6.179
 2401WAT     H2 7746   0.733   5.248   6.275
 2402WAT      O 7747   1.424   3.938   6.698
 2402WAT     H1 7748   1.476   3.873   6.753
 2402WAT     H2 7749   1.375   4.001   6.759
 2403WAT      O 7750   1.001   3.758   6.740
 2403WAT     H1 7751   0.938   3.686   6.709
 2403WAT     H2 7752   1.094   3.722   6.740
 2404WAT      O 7753   0.770   5.054   5.887
 2404WAT     H1 7754   0.724   4.967   5.904
 2404WAT     H2 7755   0.861   5.051   5.928
 2405WAT      O 7756   0.618   5.291   6.870
 2405WAT     H1 7757   0.613   5.373   6.927
 2405WAT     H2 7758   0.707   5.288   6.825
 2406WAT      O 7759   1.352   3.776   5.754
 2406WAT     H1 7760   1.387   3.735   5.670
 2406WAT     H2 7761   1.262   3.738   5.774
 2407WAT      O 7762   1.300   4.177   6.277
 2407WAT     H1 7763   1.241   4.257   6.281
 2407WAT     H2 7764   1.315   4.142   6.370
 2408WAT      O 7765   1.593   3.945   6.468
 2408WAT     H1 7766   1.509   3.944   6.522
 2408WAT     H2 7767   1.595   4.028   6.412
 2409WAT      O 7768   0.039   4.801   5.886
 2409WAT     H1 7769   0.138   4.790   5.877
 2409WAT     H2 7770  -0.001   4.715   5.918
 2410WAT      O 7771   0.875   5.370   5.923
 2410WAT     H1 7772   0.798   5.335   5.869
 2410WAT     H2 7773   0.843   5.441   5.985
 2411WAT      O 7774   0.230   6.214   0.113
 2411WAT     H1 7775   0.137   6.212   0.150
 2411WAT     H2 7776   0.231   6.175   0.021
 2412WAT      O 7777   0.225   5.861   0.996
 2412WAT     H1 7778   0.260   5.844   1.088
 2412WAT     H2 7779   0.137   5.816   0.984
 2413WAT      O 7780   0.019   5.954   0.647
 2413WAT     H1 7781  -0.063   5.997   0.686
 2413WAT     H2 7782  -0.009   5.881   0.584
 2414WAT      O 7783   0.569   6.861   1.165
 2414WAT     H1 7784   0.476   6.854   1.128
 2414WAT     H2 7785   0.580   6.950   1.209
 2415WAT      O 7786   1.555   7.097   0.703
 2415WAT     H1 7787   1.498   7.081   0.784
 2415WAT     H2 7788   1.496   7.107   0.623
 2416WAT      O 7789   1.135   6.289   0.717
 2416WAT     H1 7790   1.192   6.367   0.692
 2416WAT     H2 7791   1.075   6.315   0.793
 2417WAT      O 7792   1.755   6.193   0.231
 2417WAT     H1 7793   1.743   6.180   0.132
 2417WAT     H2 7794   1.725   6.112   0.280
 2418WAT      O 7795   0.768   6.730   1.023
 2418WAT     H1 7796   0.690   6.747   1.083
 2418WAT     H2 7797   0.802   6.817   0.987
 2419WAT      O 7798   0.850   6.384   1.823
 2419WAT     H1 7799   0.846   6.460   1.888
 2419WAT     H2 7800   0.872   6.420   1.732
 2420WAT      O 7801   0.685   6.598   0.665
 2420WAT     H1 7802   0.754   6.582   0.735
 2420WAT     H2 7803   0.612   6.655   0.703
 2421WAT      O 7804   0.686   6.747   1.803
 2421WAT     H1 7805   0.746   6.826   1.817
 2421WAT     H2 7806   0.600   6.778   1.762
 2422WAT      O 7807   0.335   7.021   1.061
 2422WAT     H1 7808   0.257   6.990   1.008
 2422WAT     H2 7809   0.393   7.079   1.004
 2423WAT      O 7810   0.438   5.978   1.499
 2423WAT     H1 7811   0.520   5.922   1.508
 2423WAT     H2 7812   0.357   5.920   1.503
 2424WAT      O 7813   1.603   6.033   0.737
 2424WAT     H1 7814   1.529   6.079   0.687
 2424WAT     H2 7815   1.654   6.101   0.790
 2425WAT      O 7816   0.240   6.677   0.886
 2425WAT     H1 7817   0.254   6.593   0.938
 2425WAT     H2 7818   0.185   6.741   0.941
 2426WAT      O 7819   0.606   6.550   0.123
 2426WAT     H1 7820   0.613   6.634   0.069
 2426WAT     H2 7821   0.652   6.563   0.211
 2427WAT      O 7822   1.594   5.700   1.480
 2427WAT     H1 7823   1.576   5.767   1.408
 2427WAT     H2 7824   1.591   5.746   1.569
 2428WAT      O 7825   0.122   6.229   0.563
 2428WAT     H1 7826   0.077   6.141   0.580
 2428WAT     H2 7827   0.121   6.283   0.647
 2429WAT      O 7828   1.689   6.508   0.612
 2429WAT     H1 7829   1.784   6.479   0.620
 2429WAT     H2 7830   1.681   6.573   0.537
 2430WAT      O 7831   1.641   6.694   0.432
 2430WAT     H1 7832   1.727   6.696   0.380
 2430WAT     H2 7833   1.655   6.741   0.520
 2431WAT      O 7834   0.113   6.323   1.597
 2431WAT     H1 7835   0.201   6.310   1.642
 2431WAT     H2 7836   0.100   6.420   1.575
 2432WAT      O 7837   1.293   6.814   1.423
 2432WAT     H1 7838   1.330   6.741   1.365
 2432WAT     H2 7839   1.345   6.819   1.508
 2433WAT      O 7840   0.809   5.590   0.502
 2433WAT     H1 7841   0.849   5.681   0.493
 2433WAT     H2 7842   0.709   5.598   0.508
 2434WAT      O 7843   0.197   6.562   1.264
 2434WAT     H1 7844   0.286   6.517   1.250
 2434WAT     H2 7845   0.124   6.497   1.245
 2435WAT      O 7846   1.525   6.585   0.190
 2435WAT     H1 7847   1.462   6.509   0.203
 2435WAT     H2 7848   1.573   6.603   0.276
 2436WAT      O 7849   0.317   5.837   1.801
 2436WAT     H1 7850   0.388   5.908   1.807
 2436WAT     H2 7851   0.229   5.876   1.829
 2437WAT      O 7852   1.466   7.003   0.953
 2437WAT     H1 7853   1.407   7.009   1.033
 2437WAT     H2 7854   1.451   6.915   0.907
 2438WAT      O 7855   0.598   6.315   0.270
 2438WAT     H1 7856   0.622   6.384   0.202
 2438WAT     H2 7857   0.520   6.348   0.324
 2439WAT      O 7858   1.281   5.931   0.944
 2439WAT     H1 7859   1.195   5.881   0.931
 2439WAT     H2 7860   1.343   5.877   1.000
 2440WAT      O 7861   0.807   6.191   1.465
 2440WAT     H1 7862   0.760   6.188   1.554
 2440WAT     H2 7863   0.756   6.136   1.399
 2441WAT      O 7864   1.394   6.055   1.674
 2441WAT     H1 7865   1.374   6.098   1.762
 2441WAT     H2 7866   1.472   5.993   1.683
 2442WAT      O 7867   0.973   6.476   1.572
 2442WAT     H1 7868   1.019   6.392   1.543
 2442WAT     H2 7869   0.917   6.510   1.497
 2443WAT      O 7870   0.991   5.996   1.242
 2443WAT     H1 7871   0.914   6.030   1.296
 2443WAT     H2 7872   0.957   5.945   1.163
 2444WAT      O 7873   1.041   6.287   0.429
 2444WAT     H1 7874   1.067   6.283   0.525
 2444WAT     H2 7875   0.956   6.236   0.415
 2445WAT      O 7876   0.076   6.397   0.789
 2445WAT     H1 7877   0.175   6.385   0.798
 2445WAT     H2 7878   0.052   6.492   0.810
 2446WAT      O 7879   0.865   5.934   0.195
 2446WAT     H1 7880   0.924   5.997   0.146
 2446WAT     H2 7881   0.884   5.840   0.166
 2447WAT      O 7882   1.719   6.171   1.831
 2447WAT     H1 7883   1.693   6.260   1.795
 2447WAT     H2 7884   1.717   6.103   1.758
 2448WAT      O 7885   1.362   6.730   0.545
 2448WAT     H1 7886   1.445   6.701   0.497
 2448WAT     H2 7887   1.313   6.797   0.489
 2449WAT      O 7888   0.550   5.782   0.885
 2449WAT     H1 7889   0.545   5.777   0.985
 2449WAT     H2 7890   0.552   5.878   0.856
 2450WAT      O 7891   1.795   6.652   0.873
 2450WAT     H1 7892   1.733   6.637   0.797
 2450WAT     H2 7893   1.743   6.663   0.958
 2451WAT      O 7894   0.321   6.529   0.242
 2451WAT     H1 7895   0.403   6.568   0.200
 2451WAT     H2 7896   0.294   6.447   0.193
 2452WAT      O 7897   1.458   6.321   0.728
 2452WAT     H1 7898   1.453   6.256   0.803
 2452WAT     H2 7899   1.538   6.380   0.741
 2453WAT      O 7900   0.202   5.871   1.498
 2453WAT     H1 7901   0.122   5.931   1.485
 2453WAT     H2 7902   0.192   5.822   1.584
 2454WAT      O 7903   1.632   6.963   0.081
 2454WAT     H1 7904   1.600   7.057   0.071
 2454WAT     H2 7905   1.556   6.900   0.069
 2455WAT      O 7906   1.400   5.693   0.426
 2455WAT     H1 7907   1.376   5.656   0.336
 2455WAT     H2 7908   1.499   5.709   0.430
 2456WAT      O 7909   0.382   6.286   0.480
 2456WAT     H1 7910   0.427   6.196   0.477
 2456WAT     H2 7911   0.288   6.275   0.513
 2457WAT      O 7912   1.547   5.808   1.729
 2457WAT     H1 7913   1.542   5.845   1.821
 2457WAT     H2 7914   1.475   5.739   1.717
 2458WAT      O 7915   0.781   5.850   1.749
 2458WAT     H1 7916   0.848   5.789   1.792
 2458WAT     H2 7917   0.708   5.869   1.814
 2459WAT      O 7918   1.351   6.176   1.433
 2459WAT     H1 7919   1.379   6.133   1.518
 2459WAT     H2 7920   1.376   6.272   1.434
 2460WAT      O 7921   0.922   6.089   0.899
 2460WAT     H1 7922   0.897   6.080   0.803
 2460WAT     H2 7923   0.970   6.007   0.930
 2461WAT      O 7924   0.539   5.650   0.512
 2461WAT     H1 7925   0.458   5.651   0.570
 2461WAT     H2 7926   0.542   5.733   0.457
 2462WAT      O 7927   1.434   6.774   0.041
 2462WAT     H1 7928   1.466   6.698   0.098
 2462WAT     H2 7929   1.342   6.801   0.071
 2463WAT      O 7930   0.935   5.822   0.480
 2463WAT     H1 7931   0.887   5.863   0.402
 2463WAT     H2 7932   1.034   5.820   0.461
 2464WAT      O 7933   1.076   6.269   1.464
 2464WAT     H1 7934   0.996   6.208   1.467
 2464WAT     H2 7935   1.157   6.216   1.440
 2465WAT      O 7936   1.227   7.156   0.793
 2465WAT     H1 7937   1.248   7.230   0.728
 2465WAT     H2 7938   1.295   7.156   0.866
 2466WAT      O 7939   0.459   6.738   0.741
 2466WAT     H1 7940   0.388   6.711   0.806
 2466WAT     H2 7941   0.433   6.710   0.648
 2467WAT      O 7942   1.032   6.135   0.016
 2467WAT     H1 7943   0.991   6.217  -0.023
 2467WAT     H2 7944   1.096   6.161   0.089
 2468WAT      O 7945   0.078   6.142   1.386
 2468WAT     H1 7946   0.170   6.141   1.345
 2468WAT     H2 7947   0.072   6.216   1.453
 2469WAT      O 7948   0.561   5.808   1.147
 2469WAT     H1 7949   0.599   5.724   1.184
 2469WAT     H2 7950   0.473   5.827   1.191
 2470WAT      O 7951   0.866   6.040   0.642
 2470WAT     H1 7952   0.834   6.112   0.580
 2470WAT     H2 7953   0.890   5.959   0.589
 2471WAT      O 7954   1.017   5.625   0.753
 2471WAT     H1 7955   0.945   5.630   0.684
 2471WAT     H2 7956   0.993   5.556   0.822
 2472WAT      O 7957   1.429   6.759   0.867
 2472WAT     H1 7958   1.374   6.675   0.860
 2472WAT     H2 7959   1.455   6.788   0.775
 2473WAT      O 7960   1.466   6.176   0.992
 2473WAT     H1 7961   1.436   6.081   0.999
 2473WAT     H2 7962   1.539   6.192   1.058
 2474WAT      O 7963   1.857   6.419   0.377
 2474WAT     H1 7964   1.899   6.355   0.441
 2474WAT     H2 7965   1.819   6.368   0.299
 2475WAT      O 7966   1.664   6.866   0.657
 2475WAT     H1 7967   1.763   6.874   0.671
 2475WAT     H2 7968   1.619   6.950   0.688
 2476WAT      O 7969   1.390   6.161   0.078
 2476WAT     H1 7970   1.336   6.140   0.159
 2476WAT     H2 7971   1.481   6.120   0.087
 2477WAT      O 7972   0.527   5.842   0.328
 2477WAT     H1 7973   0.554   5.783   0.253
 2477WAT     H2 7974   0.527   5.937   0.297
 2478WAT      O 7975   1.754   6.809   1.588
 2478WAT     H1 7976   1.845   6.770   1.575
 2478WAT     H2 7977   1.762   6.905   1.612
 2479WAT      O 7978   1.064   6.933   1.340
 2479WAT     H1 7979   0.984   6.910   1.395
 2479WAT     H2 7980   1.147   6.907   1.389
 2480WAT      O 7981   1.111   6.781   1.100
 2480WAT     H1 7982   1.071   6.825   1.181
 2480WAT     H2 7983   1.070   6.818   1.017
 2481WAT      O 7984   1.638   6.685   1.079
 2481WAT     H1 7985   1.643   6.766   1.138
 2481WAT     H2 7986   1.552   6.687   1.028
 2482WAT      O 7987   0.915   5.675   1.402
 2482WAT     H1 7988   0.940   5.655   1.307
 2482WAT     H2 7989   0.987   5.731   1.444
 2483WAT      O 7990   0.980   6.702   1.719
 2483WAT     H1 7991   0.881   6.708   1.729
 2483WAT     H2 7992   1.003   6.622   1.663
 2484WAT      O 7993   0.705   6.636   0.368
 2484WAT     H1 7994   0.691   6.643   0.467
 2484WAT     H2 7995   0.789   6.585   0.350
 2485WAT      O 7996   0.410   6.399   1.251
 2485WAT     H1 7997   0.496   6.411   1.301
 2485WAT     H2 7998   0.368   6.312   1.278
 2486WAT      O 7999   1.274   5.972   1.262
 2486WAT     H1 8000   1.295   6.046   1.326
 2486WAT     H2 8001   1.185   5.989   1.219
 2487WAT      O 8002   0.064   7.150   1.331
 2487WAT     H1 8003   0.018   7.232   1.297
 2487WAT     H2 8004   0.162   7.169   1.340
 2488WAT      O 8005   0.367   6.686   0.501
 2488WAT     H1 8006   0.360   6.769   0.445
 2488WAT     H2 8007   0.371   6.606   0.441
 2489WAT      O 8008   0.566   6.123   0.865
 2489WAT     H1 8009   0.578   6.189   0.791
 2489WAT     H2 8010   0.612   6.157   0.948
 2490WAT      O 8011   1.582   6.225   0.472
 2490WAT     H1 8012   1.551   6.286   0.545
 2490WAT     H2 8013   1.632   6.277   0.403
 2491WAT      O 8014   0.402   6.337   1.598
 2491WAT     H1 8015   0.470   6.392   1.551
 2491WAT     H2 8016   0.442   6.249   1.625
 2492WAT      O 8017   1.587   6.365   1.670
 2492WAT     H1 8018   1.495   6.403   1.665
 2492WAT     H2 8019   1.647   6.412   1.605
 2493WAT      O 8020   1.013   5.691   1.770
 2493WAT     H1 8021   1.019   5.776   1.718
 2493WAT     H2 8022   1.045   5.615   1.713
 2494WAT      O 8023   0.504   5.636   1.740
 2494WAT     H1 8024   0.462   5.579   1.670
 2494WAT     H2 8025   0.438   5.705   1.772
 2495WAT      O 8026   0.573   6.456   1.029
 2495WAT     H1 8027   0.617   6.545   1.020
 2495WAT     H2 8028   0.510   6.456   1.106
 2496WAT      O 8029   1.360   6.448   1.045
 2496WAT     H1 8030   1.285   6.448   0.979
 2496WAT     H2 8031   1.397   6.356   1.054
 2497WAT      O 8032   1.209   6.111   0.275
 2497WAT     H1 8033   1.222   6.027   0.329
 2497WAT     H2 8034   1.180   6.185   0.335
 2498WAT      O 8035   0.307   5.799   1.231
 2498WAT     H1 8036   0.284   5.836   1.321
 2498WAT     H2 8037   0.277   5.704   1.225
 2499WAT      O 8038   0.037   6.896   1.282
 2499WAT     H1 8039   0.090   6.847   1.350
 2499WAT     H2 8040   0.059   6.994   1.287
 2500WAT      O 8041   0.732   6.220   1.064
 2500WAT     H1 8042   0.791   6.194   0.988
 2500WAT     H2 8043   0.704   6.316   1.053
 2501WAT      O 8044   1.728   6.521   1.854
 2501WAT     H1 8045   1.682   6.514   1.765
 2501WAT     H2 8046   1.666   6.565   1.920
 2502WAT      O 8047   0.307   5.649   0.618
 2502WAT     H1 8048   0.296   5.743   0.651
 2502WAT     H2 8049   0.302   5.586   0.695
 2503WAT      O 8050   1.622   5.953   0.374
 2503WAT     H1 8051   1.624   5.877   0.438
 2503WAT     H2 8052   1.574   6.030   0.414
 2504WAT      O 8053   1.023   6.352   0.966
 2504WAT     H1 8054   1.038   6.373   1.062
 2504WAT     H2 8055   0.993   6.257   0.957
 2505WAT      O 8056   1.859   7.104   1.605
 2505WAT     H1 8057   1.873   7.131   1.510
 2505WAT     H2 8058   1.942   7.126   1.658
 2506WAT      O 8059   0.350   6.484   1.804
 2506WAT     H1 8060   0.426   6.528   1.852
 2506WAT     H2 8061   0.385   6.437   1.722
 2507WAT      O 8062   1.540   5.860   0.125
 2507WAT     H1 8063   1.479   5.785   0.148
 2507WAT     H2 8064   1.562   5.912   0.208
 2508WAT      O 8065   1.303   6.424   0.042
 2508WAT     H1 8066   1.337   6.331   0.057
 2508WAT     H2 8067   1.321   6.451  -0.053
 2509WAT      O 8068   0.319   6.396   0.949
 2509WAT     H1 8069   0.412   6.432   0.954
 2509WAT     H2 8070   0.313   6.311   1.001
 2510WAT      O 8071   0.339   6.095   1.006
 2510WAT     H1 8072   0.287   6.012   0.989
 2510WAT     H2 8073   0.416   6.100   0.942
 2511WAT      O 8074   1.138   5.966   1.678
 2511WAT     H1 8075   1.093   6.029   1.742
 2511WAT     H2 8076   1.231   5.997   1.661
 2512WAT      O 8077   1.160   5.793   1.477
 2512WAT     H1 8078   1.160   5.857   1.554
 2512WAT     H2 8079   1.188   5.841   1.394
 2513WAT      O 8080   0.008   6.912   0.200
 2513WAT     H1 8081  -0.085   6.933   0.169
 2513WAT     H2 8082   0.018   6.813   0.213
 2514WAT      O 8083   1.002   6.382   1.238
 2514WAT     H1 8084   1.043   6.350   1.324
 2514WAT     H2 8085   0.906   6.355   1.235
 2515WAT      O 8086   0.040   6.130   1.114
 2515WAT     H1 8087   0.125   6.097   1.073
 2515WAT     H2 8088   0.053   6.145   1.212
 2516WAT      O 8089   0.189   6.106   1.722
 2516WAT     H1 8090   0.248   6.066   1.652
 2516WAT     H2 8091   0.131   6.177   1.681
 2517WAT      O 8092   1.369   6.536   1.660
 2517WAT     H1 8093   1.408   6.625   1.680
 2517WAT     H2 8094   1.379   6.516   1.563
 2518WAT      O 8095   0.815   6.158   0.325
 2518WAT     H1 8096   0.822   6.069   0.279
 2518WAT     H2 8097   0.721   6.192   0.317
 2519WAT      O 8098   1.657   6.190   1.206
 2519WAT     H1 8099   1.619   6.121   1.268
 2519WAT     H2 8100   1.739   6.154   1.162
 2520WAT      O 8101   0.671   6.050   1.269
 2520WAT     H1 8102   0.637   5.961   1.239
 2520WAT     H2 8103   0.697   6.104   1.189
 2521WAT      O 8104   0.473   6.086   0.191
 2521WAT     H1 8105   0.534   6.166   0.195
 2521WAT     H2 8106   0.378   6.117   0.198
 2522WAT      O 8107   0.159   6.723   1.466
 2522WAT     H1 8108   0.181   6.662   1.542
 2522WAT     H2 8109   0.169   6.674   1.380
 2523WAT      O 8110   1.347   6.645   1.234
 2523WAT     H1 8111   1.371   6.582   1.160
 2523WAT     H2 8112   1.257   6.685   1.216
 2524WAT      O 8113   1.302   6.441   0.309
 2524WAT     H1 8114   1.216   6.410   0.351
 2524WAT     H2 8115   1.298   6.427   0.210
 2525WAT      O 8116   0.083   6.844   1.022
 2525WAT     H1 8117   0.078   6.843   1.122
 2525WAT     H2 8118   0.000   6.803   0.984
 2526WAT      O 8119   0.903   5.672   0.133
 2526WAT     H1 8120   0.954   5.673   0.047
 2526WAT     H2 8121   0.959   5.630   0.204
 2527WAT      O 8122   1.726   5.721   0.523
 2527WAT     H1 8123   1.799   5.704   0.456
 2527WAT     H2 8124   1.695   5.634   0.561
 2528WAT      O 8125   1.280   6.513   0.672
 2528WAT     H1 8126   1.340   6.432   0.674
 2528WAT     H2 8127   1.320   6.582   0.612
 2529WAT      O 8128   0.830   6.859   1.422
 2529WAT     H1 8129   0.825   6.892   1.517
 2529WAT     H2 8130   0.744   6.878   1.376
 2530WAT      O 8131   1.841   5.761   0.963
 2530WAT     H1 8132   1.880   5.676   0.927
 2530WAT     H2 8133   1.743   5.763   0.944
 2531WAT      O 8134   0.263   5.912   0.720
 2531WAT     H1 8135   0.184   5.963   0.686
 2531WAT     H2 8136   0.254   5.897   0.818
 2532WAT      O 8137   0.822   6.588   1.372
 2532WAT     H1 8138   0.862   6.587   1.280
 2532WAT     H2 8139   0.832   6.680   1.412
 2533WAT      O 8140   0.916   6.496   0.291
 2533WAT     H1 8141   0.979   6.534   0.223
 2533WAT     H2 8142   0.956   6.413   0.330
 2534WAT      O 8143   0.372   6.874   1.490
 2534WAT     H1 8144   0.359   6.967   1.456
 2534WAT     H2 8145   0.288   6.822   1.477
 2535WAT      O 8146   1.614   6.878   1.289
 2535WAT     H1 8147   1.674   6.881   1.369
 2535WAT     H2 8148   1.539   6.942   1.302
 2536WAT      O 8149   1.039   6.684   0.696
 2536WAT     H1 8150   0.969   6.637   0.750
 2536WAT     H2 8151   1.098   6.616   0.653
 2537WAT      O 8152   1.014   5.822   0.971
 2537WAT     H1 8153   1.006   5.786   0.878
 2537WAT     H2 8154   1.012   5.746   1.036
 2538WAT      O 8155   1.709   5.971   1.381
 2538WAT     H1 8156   1.782   6.040   1.385
 2538WAT     H2 8157   1.737   5.896   1.322
 2539WAT      O 8158   0.105   6.599   1.726
 2539WAT     H1 8159   0.028   6.566   1.780
 2539WAT     H2 8160   0.190   6.569   1.768
 2540WAT      O 8161   0.672   5.789   1.489
 2540WAT     H1 8162   0.762   5.773   1.449
 2540WAT     H2 8163   0.680   5.794   1.588
 2541WAT      O 8164   0.075   5.931   0.033
 2541WAT     H1 8165  -0.017   5.903   0.004
 2541WAT     H2 8166   0.106   6.008  -0.023
 2542WAT      O 8167   1.440   6.442   1.398
 2542WAT     H1 8168   1.383   6.494   1.335
 2542WAT     H2 8169   1.536   6.454   1.374
 2543WAT      O 8170   0.072   5.752   0.318
 2543WAT     H1 8171   0.055   5.835   0.264
 2543WAT     H2 8172   0.162   5.715   0.296
 2544WAT      O 8173   0.613   6.428   1.431
 2544WAT     H1 8174   0.669   6.509   1.414
 2544WAT     H2 8175   0.672   6.348   1.434
 2545WAT      O 8176   0.716   6.151   1.708
 2545WAT     H1 8177   0.735   6.216   1.782
 2545WAT     H2 8178   0.776   6.071   1.717
 2546WAT      O 8179   1.450   6.806   1.633
 2546WAT     H1 8180   1.441   6.796   1.732
 2546WAT     H2 8181   1.546   6.799   1.607
 2547WAT      O 8182   1.674   6.469   1.254
 2547WAT     H1 8183   1.647   6.380   1.217
 2547WAT     H2 8184   1.675   6.537   1.181
 2548WAT      O 8185   1.225   5.911   0.449
 2548WAT     H1 8186   1.290   5.837   0.438
 2548WAT     H2 8187   1.245   5.961   0.533
 2549WAT      O 8188   0.594   6.331   0.652
 2549WAT     H1 8189   0.644   6.416   0.633
 2549WAT     H2 8190   0.506   6.333   0.604
 2550WAT      O 8191   1.777   5.928   1.642
 2550WAT     H1 8192   1.760   5.959   1.548
 2550WAT     H2 8193   1.693   5.891   1.680
 2551WAT      O 8194   1.730   6.520   1.517
 2551WAT     H1 8195   1.768   6.611   1.532
 2551WAT     H2 8196   1.722   6.503   1.418
 2552WAT      O 8197   0.859   6.542   0.861
 2552WAT     H1 8198   0.913   6.473   0.909
 2552WAT     H2 8199   0.827   6.611   0.927
 2553WAT      O 8200   1.083   6.570   0.087
 2553WAT     H1 8201   1.060   6.623   0.005
 2553WAT     H2 8202   1.164   6.514   0.068
 2554WAT      O 8203   0.221   6.900   1.844
 2554WAT     H1 8204   0.156   6.827   1.823
 2554WAT     H2 8205   0.225   6.914   1.942
 2555WAT      O 8206   0.079   6.826   0.653
 2555WAT     H1 8207   0.078   6.779   0.741
 2555WAT     H2 8208   0.161   6.798   0.602
 2556WAT      O 8209   0.672   6.977   1.624
 2556WAT     H1 8210   0.594   6.927   1.662
 2556WAT     H2 8211   0.669   7.072   1.655
 2557WAT      O 8212   1.824   5.778   1.227
 2557WAT     H1 8213   1.820   5.688   1.271
 2557WAT     H2 8214   1.827   5.767   1.128
 2558WAT      O 8215   0.428   6.010   0.520
 2558WAT     H1 8216   0.458   5.938   0.458
 2558WAT     H2 8217   0.389   5.970   0.603
 2559WAT      O 8218   1.705   7.073   1.104
 2559WAT     H1 8219   1.612   7.048   1.077
 2559WAT     H2 8220   1.731   7.023   1.186
 2560WAT      O 8221   0.317   6.133   1.280
 2560WAT     H1 8222   0.355   6.074   1.352
 2560WAT     H2 8223   0.357   6.107   1.192
 2561WAT      O 8224   1.424   5.800   1.112
 2561WAT     H1 8225   1.476   5.735   1.167
 2561WAT     H2 8226   1.375   5.863   1.173
 2562WAT      O 8227   1.001   5.620   1.154
 2562WAT     H1 8228   0.938   5.548   1.123
 2562WAT     H2 8229   1.094   5.584   1.154
 2563WAT      O 8230   0.770   6.916   0.301
 2563WAT     H1 8231   0.724   6.829   0.318
 2563WAT     H2 8232   0.861   6.913   0.342
 2564WAT      O 8233   1.352   5.638   0.168
 2564WAT     H1 8234   1.387   5.597   0.084
 2564WAT     H2 8235   1.262   5.600   0.188
 2565WAT      O 8236   1.300   6.039   0.691
 2565WAT     H1 8237   1.241   6.119   0.695
 2565WAT     H2 8238   1.315   6.004   0.784
 2566WAT      O 8239   1.593   5.807   0.882
 2566WAT     H1 8240   1.509   5.806   0.936
 2566WAT     H2 8241   1.595   5.890   0.826
 2567WAT      O 8242   0.039   6.663   0.300
 2567WAT     H1 8243   0.138   6.652   0.291
 2567WAT     H2 8244  -0.001   6.577   0.332
 2568WAT      O 8245   0.230   6.214   1.975
 2568WAT     H1 8246   0.137   6.212   2.012
 2568WAT     H2 8247   0.231   6.175   1.883
 2569WAT      O 8248   0.225   5.861   2.858
 2569WAT     H1 8249   0.260   5.844   2.950
 2569WAT     H2 8250   0.137   5.816   2.846
 2570WAT      O 8251   0.019   5.954   2.509
 2570WAT     H1 8252  -0.063   5.997   2.548
 2570WAT     H2 8253  -0.009   5.881   2.446
 2571WAT      O 8254   0.569   6.861   3.027
 2571WAT     H1 8255   0.476   6.854   2.990
 2571WAT     H2 8256   0.580   6.950   3.071
 2572WAT      O 8257   1.555   7.097   2.565
 2572WAT     H1 8258   1.498   7.081   2.646
 2572WAT     H2 8259   1.496   7.107   2.485
 2573WAT      O 8260   1.135   6.289   2.579
 2573WAT     H1 8261   1.192   6.367   2.554
 2573WAT     H2 8262   1.075   6.315   2.655
 2574WAT      O 8263   1.755   6.193   2.093
 2574WAT     H1 8264   1.743   6.180   1.994
 2574WAT     H2 8265   1.725   6.112   2.142
 2575WAT      O 8266   0.768   6.730   2.885
 2575WAT     H1 8267   0.690   6.747   2.945
 2575WAT     H2 8268   0.802   6.817   2.849
 2576WAT      O 8269   0.850   6.384   3.685
 2576WAT     H1 8270   0.846   6.460   3.750
 2576WAT     H2 8271   0.872   6.420   3.594
 2577WAT      O 8272   0.685   6.598   2.527
 2577WAT     H1 8273   0.754   6.582   2.597
 2577WAT     H2 8274   0.612   6.655   2.565
 2578WAT      O 8275   0.686   6.747   3.665
 2578WAT     H1 8276   0.746   6.826   3.679
 2578WAT     H2 8277   0.600   6.778   3.624
 2579WAT      O 8278   0.335   7.021   2.923
 2579WAT     H1 8279   0.257   6.990   2.870
 2579WAT     H2 8280   0.393   7.079   2.866
 2580WAT      O 8281   0.438   5.978   3.361
 2580WAT     H1 8282   0.520   5.922   3.370
 2580WAT     H2 8283   0.357   5.920   3.365
 2581WAT      O 8284   1.603   6.033   2.599
 2581WAT     H1 8285   1.529   6.079   2.549
 2581WAT     H2 8286   1.654   6.101   2.652
 2582WAT      O 8287   0.240   6.677   2.748
 2582WAT     H1 8288   0.254   6.593   2.800
 2582WAT     H2 8289   0.185   6.741   2.803
 2583WAT      O 8290   0.606   6.550   1.985
 2583WAT     H1 8291   0.613   6.634   1.931
 2583WAT     H2 8292   0.652   6.563   2.073
 2584WAT      O 8293   1.594   5.700   3.342
 2584WAT     H1 8294   1.576   5.767   3.270
 2584WAT     H2 8295   1.591   5.746   3.431
 2585WAT      O 8296   0.122   6.229   2.425
 2585WAT     H1 8297   0.077   6.141   2.442
 2585WAT     H2 8298   0.121   6.283   2.509
 2586WAT      O 8299   1.689   6.508   2.474
 2586WAT     H1 8300   1.784   6.479   2.482
 2586WAT     H2 8301   1.681   6.573   2.399
 2587WAT      O 8302   1.641   6.694   2.294
 2587WAT     H1 8303   1.727   6.696   2.242
 2587WAT     H2 8304   1.655   6.741   2.382
 2588WAT      O 8305   0.113   6.323   3.459
 2588WAT     H1 8306   0.201   6.310   3.504
 2588WAT     H2 8307   0.100   6.420   3.437
 2589WAT      O 8308   1.293   6.814   3.285
 2589WAT     H1 8309   1.330   6.741   3.227
 2589WAT     H2 8310   1.345   6.819   3.370
 2590WAT      O 8311   0.809   5.590   2.364
 2590WAT     H1 8312   0.849   5.681   2.355
 2590WAT     H2 8313   0.709   5.598   2.370
 2591WAT      O 8314   0.197   6.562   3.126
 2591WAT     H1 8315   0.286   6.517   3.112
 2591WAT     H2 8316   0.124   6.497   3.107
 2592WAT      O 8317   1.525   6.585   2.052
 2592WAT     H1 8318   1.462   6.509   2.065
 2592WAT     H2 8319   1.573   6.603   2.138
 2593WAT      O 8320   0.317   5.837   3.663
 2593WAT     H1 8321   0.388   5.908   3.669
 2593WAT     H2 8322   0.229   5.876   3.691
 2594WAT      O 8323   1.466   7.003   2.815
 2594WAT     H1 8324   1.407   7.009   2.895
 2594WAT     H2 8325   1.451   6.915   2.769
 2595WAT      O 8326   0.598   6.315   2.132
 2595WAT     H1 8327   0.622   6.384   2.064
 2595WAT     H2 8328   0.520   6.348   2.186
 2596WAT      O 8329   1.281   5.931   2.806
 2596WAT     H1 8330   1.195   5.881   2.793
 2596WAT     H2 8331   1.343   5.877   2.862
 2597WAT      O 8332   0.807   6.191   3.327
 2597WAT     H1 8333   0.760   6.188   3.416
 2597WAT     H2 8334   0.756   6.136   3.261
 2598WAT      O 8335   1.394   6.055   3.536
 2598WAT     H1 8336   1.374   6.098   3.624
 2598WAT     H2 8337   1.472   5.993   3.545
 2599WAT      O 8338   0.973   6.476   3.434
 2599WAT     H1 8339   1.019   6.392   3.405
 2599WAT     H2 8340   0.917   6.510   3.359
 2600WAT      O 8341   0.991   5.996   3.104
 2600WAT     H1 8342   0.914   6.030   3.158
 2600WAT     H2 8343   0.957   5.945   3.025
 2601WAT      O 8344   1.041   6.287   2.291
 2601WAT     H1 8345   1.067   6.283   2.387
 2601WAT     H2 8346   0.956   6.236   2.277
 2602WAT      O 8347   0.076   6.397   2.651
 2602WAT     H1 8348   0.175   6.385   2.660
 2602WAT     H2 8349   0.052   6.492   2.672
 2603WAT      O 8350   0.865   5.934   2.057
 2603WAT     H1 8351   0.924   5.997   2.008
 2603WAT     H2 8352   0.884   5.840   2.028
 2604WAT      O 8353   1.719   6.171   3.693
 2604WAT     H1 8354   1.693   6.260   3.657
 2604WAT     H2 8355   1.717   6.103   3.620
 2605WAT      O 8356   1.362   6.730   2.407
 2605WAT     H1 8357   1.445   6.701   2.359
 2605WAT     H2 8358   1.313   6.797   2.351
 2606WAT      O 8359   0.550   5.782   2.747
 2606WAT     H1 8360   0.545   5.777   2.847
 2606WAT     H2 8361   0.552   5.878   2.718
 2607WAT      O 8362   1.795   6.652   2.735
 2607WAT     H1 8363   1.733   6.637   2.659
 2607WAT     H2 8364   1.743   6.663   2.820
 2608WAT      O 8365   0.321   6.529   2.104
 2608WAT     H1 8366   0.403   6.568   2.062
 2608WAT     H2 8367   0.294   6.447   2.055
 2609WAT      O 8368   1.458   6.321   2.590
 2609WAT     H1 8369   1.453   6.256   2.665
 2609WAT     H2 8370   1.538   6.380   2.603
 2610WAT      O 8371   0.202   5.871   3.360
 2610WAT     H1 8372   0.122   5.931   3.347
 2610WAT     H2 8373   0.192   5.822   3.446
 2611WAT      O 8374   1.632   6.963   1.943
 2611WAT     H1 8375   1.600   7.057   1.933
 2611WAT     H2 8376   1.556   6.900   1.931
 2612WAT      O 8377   1.400   5.693   2.288
 2612WAT     H1 8378   1.376   5.656   2.198
 2612WAT     H2 8379   1.499   5.709   2.292
 2613WAT      O 8380   0.382   6.286   2.342
 2613WAT     H1 8381   0.427   6.196   2.339
 2613WAT     H2 8382   0.288   6.275   2.375
 2614WAT      O 8383   1.547   5.808   3.591
 2614WAT     H1 8384   1.542   5.845   3.683
 2614WAT     H2 8385   1.475   5.739   3.579
 2615WAT      O 8386   0.614   5.708   1.979
 2615WAT     H1 8387   0.712   5.686   1.986
 2615WAT     H2 8388   0.583   5.691   1.886
 2616WAT      O 8389   0.781   5.850   3.611
 2616WAT     H1 8390   0.848   5.789   3.654
 2616WAT     H2 8391   0.708   5.869   3.676
 2617WAT      O 8392   1.351   6.176   3.295
 2617WAT     H1 8393   1.379   6.133   3.380
 2617WAT     H2 8394   1.376   6.272   3.296
 2618WAT      O 8395   0.922   6.089   2.761
 2618WAT     H1 8396   0.897   6.080   2.665
 2618WAT     H2 8397   0.970   6.007   2.792
 2619WAT      O 8398   0.539   5.650   2.374
 2619WAT     H1 8399   0.458   5.651   2.432
 2619WAT     H2 8400   0.542   5.733   2.319
 2620WAT      O 8401   1.434   6.774   1.903
 2620WAT     H1 8402   1.466   6.698   1.960
 2620WAT     H2 8403   1.342   6.801   1.933
 2621WAT      O 8404   0.297   5.621   2.033
 2621WAT     H1 8405   0.346   5.705   2.012
 2621WAT     H2 8406   0.359   5.556   2.078
 2622WAT      O 8407   0.935   5.822   2.342
 2622WAT     H1 8408   0.887   5.863   2.264
 2622WAT     H2 8409   1.034   5.820   2.323
 2623WAT      O 8410   1.076   6.269   3.326
 2623WAT     H1 8411   0.996   6.208   3.329
 2623WAT     H2 8412   1.157   6.216   3.302
 2624WAT      O 8413   1.227   7.156   2.655
 2624WAT     H1 8414   1.248   7.230   2.590
 2624WAT     H2 8415   1.295   7.156   2.728
 2625WAT      O 8416   0.459   6.738   2.603
 2625WAT     H1 8417   0.388   6.711   2.668
 2625WAT     H2 8418   0.433   6.710   2.510
 2626WAT      O 8419   1.032   6.135   1.878
 2626WAT     H1 8420   0.991   6.217   1.839
 2626WAT     H2 8421   1.096   6.161   1.951
 2627WAT      O 8422   0.078   6.142   3.248
 2627WAT     H1 8423   0.170   6.141   3.207
 2627WAT     H2 8424   0.072   6.216   3.315
 2628WAT      O 8425   0.561   5.808   3.009
 2628WAT     H1 8426   0.599   5.724   3.046
 2628WAT     H2 8427   0.473   5.827   3.053
 2629WAT      O 8428   0.866   6.040   2.504
 2629WAT     H1 8429   0.834   6.112   2.442
 2629WAT     H2 8430   0.890   5.959   2.451
 2630WAT      O 8431   1.017   5.625   2.615
 2630WAT     H1 8432   0.945   5.630   2.546
 2630WAT     H2 8433   0.993   5.556   2.684
 2631WAT      O 8434   1.429   6.759   2.729
 2631WAT     H1 8435   1.374   6.675   2.722
 2631WAT     H2 8436   1.455   6.788   2.637
 2632WAT      O 8437   1.466   6.176   2.854
 2632WAT     H1 8438   1.436   6.081   2.861
 2632WAT     H2 8439   1.539   6.192   2.920
 2633WAT      O 8440   1.857   6.419   2.239
 2633WAT     H1 8441   1.899   6.355   2.303
 2633WAT     H2 8442   1.819   6.368   2.161
 2634WAT      O 8443   1.664   6.866   2.519
 2634WAT     H1 8444   1.763   6.874   2.533
 2634WAT     H2 8445   1.619   6.950   2.550
 2635WAT      O 8446   1.390   6.161   1.940
 2635WAT     H1 8447   1.336   6.140   2.021
 2635WAT     H2 8448   1.481   6.120   1.949
 2636WAT      O 8449   0.527   5.842   2.190
 2636WAT     H1 8450   0.554   5.783   2.115
 2636WAT     H2 8451   0.527   5.937   2.159
 2637WAT      O 8452   1.754   6.809   3.450
 2637WAT     H1 8453   1.845   6.770   3.437
 2637WAT     H2 8454   1.762   6.905   3.474
 2638WAT      O 8455   1.064   6.933   3.202
 2638WAT     H1 8456   0.984   6.910   3.257
 2638WAT     H2 8457   1.147   6.907   3.251
 2639WAT      O 8458   1.111   6.781   2.962
 2639WAT     H1 8459   1.071   6.825   3.043
 2639WAT     H2 8460   1.070   6.818   2.879
 2640WAT      O 8461   1.638   6.685   2.941
 2640WAT     H1 8462   1.643   6.766   3.000
 2640WAT     H2 8463   1.552   6.687   2.890
 2641WAT      O 8464   0.915   5.675   3.264
 2641WAT     H1 8465   0.940   5.655   3.169
 2641WAT     H2 8466   0.987   5.731   3.306
 2642WAT      O 8467   0.980   6.702   3.581
 2642WAT     H1 8468   0.881   6.708   3.591
 2642WAT     H2 8469   1.003   6.622   3.525
 2643WAT      O 8470   0.705   6.636   2.230
 2643WAT     H1 8471   0.691   6.643   2.329
 2643WAT     H2 8472   0.789   6.585   2.212
 2644WAT      O 8473   0.410   6.399   3.113
 2644WAT     H1 8474   0.496   6.411   3.163
 2644WAT     H2 8475   0.368   6.312   3.140
 2645WAT      O 8476   1.274   5.972   3.124
 2645WAT     H1 8477   1.295   6.046   3.188
 2645WAT     H2 8478   1.185   5.989   3.081
 2646WAT      O 8479   0.064   7.150   3.193
 2646WAT     H1 8480   0.018   7.232   3.159
 2646WAT     H2 8481   0.162   7.169   3.202
 2647WAT      O 8482   0.367   6.686   2.363
 2647WAT     H1 8483   0.360   6.769   2.307
 2647WAT     H2 8484   0.371   6.606   2.303
 2648WAT      O 8485   0.566   6.123   2.727
 2648WAT     H1 8486   0.578   6.189   2.653
 2648WAT     H2 8487   0.612   6.157   2.810
 2649WAT      O 8488   1.582   6.225   2.334
 2649WAT     H1 8489   1.551   6.286   2.407
 2649WAT     H2 8490   1.632   6.277   2.265
 2650WAT      O 8491   0.402   6.337   3.460
 2650WAT     H1 8492   0.470   6.392   3.413
 2650WAT     H2 8493   0.442   6.249   3.487
 2651WAT      O 8494   1.587   6.365   3.532
 2651WAT     H1 8495   1.495   6.403   3.527
 2651WAT     H2 8496   1.647   6.412   3.467
 2652WAT      O 8497   1.013   5.691   3.632
 2652WAT     H1 8498   1.019   5.776   3.580
 2652WAT     H2 8499   1.045   5.615   3.575
 2653WAT      O 8500   0.504   5.636   3.602
 2653WAT     H1 8501   0.462   5.579   3.532
 2653WAT     H2 8502   0.438   5.705   3.634
 2654WAT      O 8503   0.573   6.456   2.891
 2654WAT     H1 8504   0.617   6.545   2.882
 2654WAT     H2 8505   0.510   6.456   2.968
 2655WAT      O 8506   1.360   6.448   2.907
 2655WAT     H1 8507   1.285   6.448   2.841
 2655WAT     H2 8508   1.397   6.356   2.916
 2656WAT      O 8509   1.209   6.111   2.137
 2656WAT     H1 8510   1.222   6.027   2.191
 2656WAT     H2 8511   1.180   6.185   2.197
 2657WAT      O 8512   0.307   5.799   3.093
 2657WAT     H1 8513   0.284   5.836   3.183
 2657WAT     H2 8514   0.277   5.704   3.087
 2658WAT      O 8515   0.037   6.896   3.144
 2658WAT     H1 8516   0.090   6.847   3.212
 2658WAT     H2 8517   0.059   6.994   3.149
 2659WAT      O 8518   0.732   6.220   2.926
 2659WAT     H1 8519   0.791   6.194   2.850
 2659WAT     H2 8520   0.704   6.316   2.915
 2660WAT      O 8521   1.728   6.521   3.716
 2660WAT     H1 8522   1.682   6.514   3.627
 2660WAT     H2 8523   1.666   6.565   3.782
 2661WAT      O 8524   0.307   5.649   2.480
 2661WAT     H1 8525   0.296   5.743   2.513
 2661WAT     H2 8526   0.302   5.586   2.557
 2662WAT      O 8527   1.622   5.953   2.236
 2662WAT     H1 8528   1.624   5.877   2.300
 2662WAT     H2 8529   1.574   6.030   2.276
 2663WAT      O 8530   1.023   6.352   2.828
 2663WAT     H1 8531   1.038   6.373   2.924
 2663WAT     H2 8532   0.993   6.257   2.819
 2664WAT      O 8533   1.859   7.104   3.467
 2664WAT     H1 8534   1.873   7.131   3.372
 2664WAT     H2 8535   1.942   7.126   3.520
 2665WAT      O 8536   0.350   6.484   3.666
 2665WAT     H1 8537   0.426   6.528   3.714
 2665WAT     H2 8538   0.385   6.437   3.584
 2666WAT      O 8539   1.540   5.860   1.987
 2666WAT     H1 8540   1.479   5.785   2.010
 2666WAT     H2 8541   1.562   5.912   2.070
 2667WAT      O 8542   1.303   6.424   1.904
 2667WAT     H1 8543   1.337   6.331   1.919
 2667WAT     H2 8544   1.321   6.451   1.809
 2668WAT      O 8545   0.319   6.396   2.811
 2668WAT     H1 8546   0.412   6.432   2.816
 2668WAT     H2 8547   0.313   6.311   2.863
 2669WAT      O 8548   0.339   6.095   2.868
 2669WAT     H1 8549   0.287   6.012   2.851
 2669WAT     H2 8550   0.416   6.100   2.804
 2670WAT      O 8551   1.138   5.966   3.540
 2670WAT     H1 8552   1.093   6.029   3.604
 2670WAT     H2 8553   1.231   5.997   3.523
 2671WAT      O 8554   1.160   5.793   3.339
 2671WAT     H1 8555   1.160   5.857   3.416
 2671WAT     H2 8556   1.188   5.841   3.256
 2672WAT      O 8557   0.008   6.912   2.062
 2672WAT     H1 8558  -0.085   6.933   2.031
 2672WAT     H2 8559   0.018   6.813   2.075
 2673WAT      O 8560   1.002   6.382   3.100
 2673WAT     H1 8561   1.043   6.350   3.186
 2673WAT     H2 8562   0.906   6.355   3.097
 2674WAT      O 8563   0.040   6.130   2.976
 2674WAT     H1 8564   0.125   6.097   2.935
 2674WAT     H2 8565   0.053   6.145   3.074
 2675WAT      O 8566   0.189   6.106   3.584
 2675WAT     H1 8567   0.248   6.066   3.514
 2675WAT     H2 8568   0.131   6.177   3.543
 2676WAT      O 8569   1.369   6.536   3.522
 2676WAT     H1 8570   1.408   6.625   3.542
 2676WAT     H2 8571   1.379   6.516   3.425
 2677WAT      O 8572   0.815   6.158   2.187
 2677WAT     H1 8573   0.822   6.069   2.141
 2677WAT     H2 8574   0.721   6.192   2.179
 2678WAT      O 8575   1.657   6.190   3.068
 2678WAT     H1 8576   1.619   6.121   3.130
 2678WAT     H2 8577   1.739   6.154   3.024
 2679WAT      O 8578   0.671   6.050   3.131
 2679WAT     H1 8579   0.637   5.961   3.101
 2679WAT     H2 8580   0.697   6.104   3.051
 2680WAT      O 8581   0.473   6.086   2.053
 2680WAT     H1 8582   0.534   6.166   2.057
 2680WAT     H2 8583   0.378   6.117   2.060
 2681WAT      O 8584   0.159   6.723   3.328
 2681WAT     H1 8585   0.181   6.662   3.404
 2681WAT     H2 8586   0.169   6.674   3.242
 2682WAT      O 8587   1.347   6.645   3.096
 2682WAT     H1 8588   1.371   6.582   3.022
 2682WAT     H2 8589   1.257   6.685   3.078
 2683WAT      O 8590   1.302   6.441   2.171
 2683WAT     H1 8591   1.216   6.410   2.213
 2683WAT     H2 8592   1.298   6.427   2.072
 2684WAT      O 8593   0.083   6.844   2.884
 2684WAT     H1 8594   0.078   6.843   2.984
 2684WAT     H2 8595   0.000   6.803   2.846
 2685WAT      O 8596   1.726   5.721   2.385
 2685WAT     H1 8597   1.799   5.704   2.318
 2685WAT     H2 8598   1.695   5.634   2.423
 2686WAT      O 8599   1.280   6.513   2.534
 2686WAT     H1 8600   1.340   6.432   2.536
 2686WAT     H2 8601   1.320   6.582   2.474
 2687WAT      O 8602   0.830   6.859   3.284
 2687WAT     H1 8603   0.825   6.892   3.379
 2687WAT     H2 8604   0.744   6.878   3.238
 2688WAT      O 8605   1.841   5.761   2.825
 2688WAT     H1 8606   1.880   5.676   2.789
 2688WAT     H2 8607   1.743   5.763   2.806
 2689WAT      O 8608   0.263   5.912   2.582
 2689WAT     H1 8609   0.184   5.963   2.548
 2689WAT     H2 8610   0.254   5.897   2.680
 2690WAT      O 8611   1.194   7.198   1.893
 2690WAT     H1 8612   1.200   7.105   1.930
 2690WAT     H2 8613   1.135   7.198   1.813
 2691WAT      O 8614   0.822   6.588   3.234
 2691WAT     H1 8615   0.862   6.587   3.142
 2691WAT     H2 8616   0.832   6.680   3.274
 2692WAT      O 8617   0.916   6.496   2.153
 2692WAT     H1 8618   0.979   6.534   2.085
 2692WAT     H2 8619   0.956   6.413   2.192
 2693WAT      O 8620   0.372   6.874   3.352
 2693WAT     H1 8621   0.359   6.967   3.318
 2693WAT     H2 8622   0.288   6.822   3.339
 2694WAT      O 8623   1.614   6.878   3.151
 2694WAT     H1 8624   1.674   6.881   3.231
 2694WAT     H2 8625   1.539   6.942   3.164
 2695WAT      O 8626   1.039   6.684   2.558
 2695WAT     H1 8627   0.969   6.637   2.612
 2695WAT     H2 8628   1.098   6.616   2.515
 2696WAT      O 8629   1.014   5.822   2.833
 2696WAT     H1 8630   1.006   5.786   2.740
 2696WAT     H2 8631   1.012   5.746   2.898
 2697WAT      O 8632   1.709   5.971   3.243
 2697WAT     H1 8633   1.782   6.040   3.247
 2697WAT     H2 8634   1.737   5.896   3.184
 2698WAT      O 8635   0.105   6.599   3.588
 2698WAT     H1 8636   0.028   6.566   3.642
 2698WAT     H2 8637   0.190   6.569   3.630
 2699WAT      O 8638   0.672   5.789   3.351
 2699WAT     H1 8639   0.762   5.773   3.311
 2699WAT     H2 8640   0.680   5.794   3.450
 2700WAT      O 8641   0.075   5.931   1.895
 2700WAT     H1 8642  -0.017   5.903   1.866
 2700WAT     H2 8643   0.106   6.008   1.839
 2701WAT      O 8644   1.440   6.442   3.260
 2701WAT     H1 8645   1.383   6.494   3.197
 2701WAT     H2 8646   1.536   6.454   3.236
 2702WAT      O 8647   0.072   5.752   2.180
 2702WAT     H1 8648   0.055   5.835   2.126
 2702WAT     H2 8649   0.162   5.715   2.158
 2703WAT      O 8650   0.613   6.428   3.293
 2703WAT     H1 8651   0.669   6.509   3.276
 2703WAT     H2 8652   0.672   6.348   3.296
 2704WAT      O 8653   0.716   6.151   3.570
 2704WAT     H1 8654   0.735   6.216   3.644
 2704WAT     H2 8655   0.776   6.071   3.579
 2705WAT      O 8656   1.450   6.806   3.495
 2705WAT     H1 8657   1.441   6.796   3.594
 2705WAT     H2 8658   1.546   6.799   3.469
 2706WAT      O 8659   1.674   6.469   3.116
 2706WAT     H1 8660   1.647   6.380   3.079
 2706WAT     H2 8661   1.675   6.537   3.043
 2707WAT      O 8662   1.225   5.911   2.311
 2707WAT     H1 8663   1.290   5.837   2.300
 2707WAT     H2 8664   1.245   5.961   2.395
 2708WAT      O 8665   0.594   6.331   2.514
 2708WAT     H1 8666   0.644   6.416   2.495
 2708WAT     H2 8667   0.506   6.333   2.466
 2709WAT      O 8668   1.777   5.928   3.504
 2709WAT     H1 8669   1.760   5.959   3.410
 2709WAT     H2 8670   1.693   5.891   3.542
 2710WAT      O 8671   1.730   6.520   3.379
 2710WAT     H1 8672   1.768   6.611   3.394
 2710WAT     H2 8673   1.722   6.503   3.280
 2711WAT      O 8674   0.859   6.542   2.723
 2711WAT     H1 8675   0.913   6.473   2.771
 2711WAT     H2 8676   0.827   6.611   2.789
 2712WAT      O 8677   1.083   6.570   1.949
 2712WAT     H1 8678   1.060   6.623   1.867
 2712WAT     H2 8679   1.164   6.514   1.930
 2713WAT      O 8680   0.221   6.900   3.706
 2713WAT     H1 8681   0.156   6.827   3.685
 2713WAT     H2 8682   0.225   6.914   3.804
 2714WAT      O 8683   0.079   6.826   2.515
 2714WAT     H1 8684   0.078   6.779   2.603
 2714WAT     H2 8685   0.161   6.798   2.464
 2715WAT      O 8686   0.672   6.977   3.486
 2715WAT     H1 8687   0.594   6.927   3.524
 2715WAT     H2 8688   0.669   7.072   3.517
 2716WAT      O 8689   1.824   5.778   3.089
 2716WAT     H1 8690   1.820   5.688   3.133
 2716WAT     H2 8691   1.827   5.767   2.990
 2717WAT      O 8692   0.428   6.010   2.382
 2717WAT     H1 8693   0.458   5.938   2.320
 2717WAT     H2 8694   0.389   5.970   2.465
 2718WAT      O 8695   1.705   7.073   2.966
 2718WAT     H1 8696   1.612   7.048   2.939
 2718WAT     H2 8697   1.731   7.023   3.048
 2719WAT      O 8698   0.317   6.133   3.142
 2719WAT     H1 8699   0.355   6.074   3.214
 2719WAT     H2 8700   0.357   6.107   3.054
 2720WAT      O 8701   1.424   5.800   2.974
 2720WAT     H1 8702   1.476   5.735   3.029
 2720WAT     H2 8703   1.375   5.863   3.035
 2721WAT      O 8704   1.001   5.620   3.016
 2721WAT     H1 8705   0.938   5.548   2.985
 2721WAT     H2 8706   1.094   5.584   3.016
 2722WAT      O 8707   0.770   6.916   2.163
 2722WAT     H1 8708   0.724   6.829   2.180
 2722WAT     H2 8709   0.861   6.913   2.204
 2723WAT      O 8710   1.352   5.638   2.030
 2723WAT     H1 8711   1.387   5.597   1.946
 2723WAT     H2 8712   1.262   5.600   2.050
 2724WAT      O 8713   1.300   6.039   2.553
 2724WAT     H1 8714   1.241   6.119   2.557
 2724WAT     H2 8715   1.315   6.004   2.646
 2725WAT      O 8716   1.593   5.807   2.744
 2725WAT     H1 8717   1.509   5.806   2.798
 2725WAT     H2 8718   1.595   5.890   2.688
 2726WAT      O 8719   0.039   6.663   2.162
 2726WAT     H1 8720   0.138   6.652   2.153
 2726WAT     H2 8721  -0.001   6.577   2.194
 2727WAT      O 8722   0.230   6.214   3.837
 2727WAT     H1 8723   0.137   6.212   3.874
 2727WAT     H2 8724   0.231   6.175   3.745
 2728WAT      O 8725   0.225   5.861   4.720
 2728WAT     H1 8726   0.260   5.844   4.812
 2728WAT     H2 8727   0.137   5.816   4.708
 2729WAT      O 8728   0.019   5.954   4.371
 2729WAT     H1 8729  -0.063   5.997   4.410
 2729WAT     H2 8730  -0.009   5.881   4.308
 2730WAT      O 8731   0.569   6.861   4.889
 2730WAT     H1 8732   0.476   6.854   4.852
 2730WAT     H2 8733   0.580   6.950   4.933
 2731WAT      O 8734   1.555   7.097   4.427
 2731WAT     H1 8735   1.498   7.081   4.508
 2731WAT     H2 8736   1.496   7.107   4.347
 2732WAT      O 8737   1.135   6.289   4.441
 2732WAT     H1 8738   1.192   6.367   4.416
 2732WAT     H2 8739   1.075   6.315   4.517
 2733WAT      O 8740   1.755   6.193   3.955
 2733WAT     H1 8741   1.743   6.180   3.856
 2733WAT     H2 8742   1.725   6.112   4.004
 2734WAT      O 8743   0.768   6.730   4.747
 2734WAT     H1 8744   0.690   6.747   4.807
 2734WAT     H2 8745   0.802   6.817   4.711
 2735WAT      O 8746   0.850   6.384   5.547
 2735WAT     H1 8747   0.846   6.460   5.612
 2735WAT     H2 8748   0.872   6.420   5.456
 2736WAT      O 8749   0.685   6.598   4.389
 2736WAT     H1 8750   0.754   6.582   4.459
 2736WAT     H2 8751   0.612   6.655   4.427
 2737WAT      O 8752   0.686   6.747   5.527
 2737WAT     H1 8753   0.746   6.826   5.541
 2737WAT     H2 8754   0.600   6.778   5.486
 2738WAT      O 8755   0.335   7.021   4.785
 2738WAT     H1 8756   0.257   6.990   4.732
 2738WAT     H2 8757   0.393   7.079   4.728
 2739WAT      O 8758   0.438   5.978   5.223
 2739WAT     H1 8759   0.520   5.922   5.232
 2739WAT     H2 8760   0.357   5.920   5.227
 2740WAT      O 8761   1.603   6.033   4.461
 2740WAT     H1 8762   1.529   6.079   4.411
 2740WAT     H2 8763   1.654   6.101   4.514
 2741WAT      O 8764   0.240   6.677   4.610
 2741WAT     H1 8765   0.254   6.593   4.662
 2741WAT     H2 8766   0.185   6.741   4.665
 2742WAT      O 8767   0.606   6.550   3.847
 2742WAT     H1 8768   0.613   6.634   3.793
 2742WAT     H2 8769   0.652   6.563   3.935
 2743WAT      O 8770   1.594   5.700   5.204
 2743WAT     H1 8771   1.576   5.767   5.132
 2743WAT     H2 8772   1.591   5.746   5.293
 2744WAT      O 8773   0.122   6.229   4.287
 2744WAT     H1 8774   0.077   6.141   4.304
 2744WAT     H2 8775   0.121   6.283   4.371
 2745WAT      O 8776   1.689   6.508   4.336
 2745WAT     H1 8777   1.784   6.479   4.344
 2745WAT     H2 8778   1.681   6.573   4.261
 2746WAT      O 8779   1.641   6.694   4.156
 2746WAT     H1 8780   1.727   6.696   4.104
 2746WAT     H2 8781   1.655   6.741   4.244
 2747WAT      O 8782   0.113   6.323   5.321
 2747WAT     H1 8783   0.201   6.310   5.366
 2747WAT     H2 8784   0.100   6.420   5.299
 2748WAT      O 8785   1.293   6.814   5.147
 2748WAT     H1 8786   1.330   6.741   5.089
 2748WAT     H2 8787   1.345   6.819   5.232
 2749WAT      O 8788   0.809   5.590   4.226
 2749WAT     H1 8789   0.849   5.681   4.217
 2749WAT     H2 8790   0.709   5.598   4.232
 2750WAT      O 8791   0.197   6.562   4.988
 2750WAT     H1 8792   0.286   6.517   4.974
 2750WAT     H2 8793   0.124   6.497   4.969
 2751WAT      O 8794   1.525   6.585   3.914
 2751WAT     H1 8795   1.462   6.509   3.927
 2751WAT     H2 8796   1.573   6.603   4.000
 2752WAT      O 8797   0.317   5.837   5.525
 2752WAT     H1 8798   0.388   5.908   5.531
 2752WAT     H2 8799   0.229   5.876   5.553
 2753WAT      O 8800   1.466   7.003   4.677
 2753WAT     H1 8801   1.407   7.009   4.757
 2753WAT     H2 8802   1.451   6.915   4.631
 2754WAT      O 8803   0.598   6.315   3.994
 2754WAT     H1 8804   0.622   6.384   3.926
 2754WAT     H2 8805   0.520   6.348   4.048
 2755WAT      O 8806   1.281   5.931   4.668
 2755WAT     H1 8807   1.195   5.881   4.655
 2755WAT     H2 8808   1.343   5.877   4.724
 2756WAT      O 8809   0.807   6.191   5.189
 2756WAT     H1 8810   0.760   6.188   5.278
 2756WAT     H2 8811   0.756   6.136   5.123
 2757WAT      O 8812   1.394   6.055   5.398
 2757WAT     H1 8813   1.374   6.098   5.486
 2757WAT     H2 8814   1.472   5.993   5.407
 2758WAT      O 8815   0.973   6.476   5.296
 2758WAT     H1 8816   1.019   6.392   5.267
 2758WAT     H2 8817   0.917   6.510   5.221
 2759WAT      O 8818   0.991   5.996   4.966
 2759WAT     H1 8819   0.914   6.030   5.020
 2759WAT     H2 8820   0.957   5.945   4.887
 2760WAT      O 8821   1.041   6.287   4.153
 2760WAT     H1 8822   1.067   6.283   4.249
 2760WAT     H2 8823   0.956   6.236   4.139
 2761WAT      O 8824   0.076   6.397   4.513
 2761WAT     H1 8825   0.175   6.385   4.522
 2761WAT     H2 8826   0.052   6.492   4.534
 2762WAT      O 8827   0.865   5.934   3.919
 2762WAT     H1 8828   0.924   5.997   3.870
 2762WAT     H2 8829   0.884   5.840   3.890
 2763WAT      O 8830   1.719   6.171   5.555
 2763WAT     H1 8831   1.693   6.260   5.519
 2763WAT     H2 8832   1.717   6.103   5.482
 2764WAT      O 8833   1.362   6.730   4.269
 2764WAT     H1 8834   1.445   6.701   4.221
 2764WAT     H2 8835   1.313   6.797   4.213
 2765WAT      O 8836   0.550   5.782   4.609
 2765WAT     H1 8837   0.545   5.777   4.709
 2765WAT     H2 8838   0.552   5.878   4.580
 2766WAT      O 8839   1.795   6.652   4.597
 2766WAT     H1 8840   1.733   6.637   4.521
 2766WAT     H2 8841   1.743   6.663   4.682
 2767WAT      O 8842   0.321   6.529   3.966
 2767WAT     H1 8843   0.403   6.568   3.924
 2767WAT     H2 8844   0.294   6.447   3.917
 2768WAT      O 8845   1.458   6.321   4.452
 2768WAT     H1 8846   1.453   6.256   4.527
 2768WAT     H2 8847   1.538   6.380   4.465
 2769WAT      O 8848   0.202   5.871   5.222
 2769WAT     H1 8849   0.122   5.931   5.209
 2769WAT     H2 8850   0.192   5.822   5.308
 2770WAT      O 8851   1.632   6.963   3.805
 2770WAT     H1 8852   1.600   7.057   3.795
 2770WAT     H2 8853   1.556   6.900   3.793
 2771WAT      O 8854   1.400   5.693   4.150
 2771WAT     H1 8855   1.376   5.656   4.060
 2771WAT     H2 8856   1.499   5.709   4.154
 2772WAT      O 8857   0.382   6.286   4.204
 2772WAT     H1 8858   0.427   6.196   4.201
 2772WAT     H2 8859   0.288   6.275   4.237
 2773WAT      O 8860   1.547   5.808   5.453
 2773WAT     H1 8861   1.542   5.845   5.545
 2773WAT     H2 8862   1.475   5.739   5.441
 2774WAT      O 8863   0.614   5.708   3.841
 2774WAT     H1 8864   0.712   5.686   3.848
 2774WAT     H2 8865   0.583   5.691   3.748
 2775WAT      O 8866   0.781   5.850   5.473
 2775WAT     H1 8867   0.848   5.789   5.516
 2775WAT     H2 8868   0.708   5.869   5.538
 2776WAT      O 8869   1.351   6.176   5.157
 2776WAT     H1 8870   1.379   6.133   5.242
 2776WAT     H2 8871   1.376   6.272   5.158
 2777WAT      O 8872   0.922   6.089   4.623
 2777WAT     H1 8873   0.897   6.080   4.527
 2777WAT     H2 8874   0.970   6.007   4.654
 2778WAT      O 8875   0.539   5.650   4.236
 2778WAT     H1 8876   0.458   5.651   4.294
 2778WAT     H2 8877   0.542   5.733   4.181
 2779WAT      O 8878   1.434   6.774   3.765
 2779WAT     H1 8879   1.466   6.698   3.822
 2779WAT     H2 8880   1.342   6.801   3.795
 2780WAT      O 8881   0.297   5.621   3.895
 2780WAT     H1 8882   0.346   5.705   3.874
 2780WAT     H2 8883   0.359   5.556   3.940
 2781WAT      O 8884   0.935   5.822   4.204
 2781WAT     H1 8885   0.887   5.863   4.126
 2781WAT     H2 8886   1.034   5.820   4.185
 2782WAT      O 8887   1.076   6.269   5.188
 2782WAT     H1 8888   0.996   6.208   5.191
 2782WAT     H2 8889   1.157   6.216   5.164
 2783WAT      O 8890   1.227   7.156   4.517
 2783WAT     H1 8891   1.248   7.230   4.452
 2783WAT     H2 8892   1.295   7.156   4.590
 2784WAT      O 8893   0.459   6.738   4.465
 2784WAT     H1 8894   0.388   6.711   4.530
 2784WAT     H2 8895   0.433   6.710   4.372
 2785WAT      O 8896   1.032   6.135   3.740
 2785WAT     H1 8897   0.991   6.217   3.701
 2785WAT     H2 8898   1.096   6.161   3.813
 2786WAT      O 8899   0.078   6.142   5.110
 2786WAT     H1 8900   0.170   6.141   5.069
 2786WAT     H2 8901   0.072   6.216   5.177
 2787WAT      O 8902   0.561   5.808   4.871
 2787WAT     H1 8903   0.599   5.724   4.908
 2787WAT     H2 8904   0.473   5.827   4.915
 2788WAT      O 8905   0.866   6.040   4.366
 2788WAT     H1 8906   0.834   6.112   4.304
 2788WAT     H2 8907   0.890   5.959   4.313
 2789WAT      O 8908   1.017   5.625   4.477
 2789WAT     H1 8909   0.945   5.630   4.408
 2789WAT     H2 8910   0.993   5.556   4.546
 2790WAT      O 8911   1.429   6.759   4.591
 2790WAT     H1 8912   1.374   6.675   4.584
 2790WAT     H2 8913   1.455   6.788   4.499
 2791WAT      O 8914   1.466   6.176   4.716
 2791WAT     H1 8915   1.436   6.081   4.723
 2791WAT     H2 8916   1.539   6.192   4.782
 2792WAT      O 8917   1.857   6.419   4.101
 2792WAT     H1 8918   1.899   6.355   4.165
 2792WAT     H2 8919   1.819   6.368   4.023
 2793WAT      O 8920   1.664   6.866   4.381
 2793WAT     H1 8921   1.763   6.874   4.395
 2793WAT     H2 8922   1.619   6.950   4.412
 2794WAT      O 8923   1.390   6.161   3.802
 2794WAT     H1 8924   1.336   6.140   3.883
 2794WAT     H2 8925   1.481   6.120   3.811
 2795WAT      O 8926   0.527   5.842   4.052
 2795WAT     H1 8927   0.554   5.783   3.977
 2795WAT     H2 8928   0.527   5.937   4.021
 2796WAT      O 8929   1.754   6.809   5.312
 2796WAT     H1 8930   1.845   6.770   5.299
 2796WAT     H2 8931   1.762   6.905   5.336
 2797WAT      O 8932   1.064   6.933   5.064
 2797WAT     H1 8933   0.984   6.910   5.119
 2797WAT     H2 8934   1.147   6.907   5.113
 2798WAT      O 8935   1.111   6.781   4.824
 2798WAT     H1 8936   1.071   6.825   4.905
 2798WAT     H2 8937   1.070   6.818   4.741
 2799WAT      O 8938   1.638   6.685   4.803
 2799WAT     H1 8939   1.643   6.766   4.862
 2799WAT     H2 8940   1.552   6.687   4.752
 2800WAT      O 8941   0.915   5.675   5.126
 2800WAT     H1 8942   0.940   5.655   5.031
 2800WAT     H2 8943   0.987   5.731   5.168
 2801WAT      O 8944   0.980   6.702   5.443
 2801WAT     H1 8945   0.881   6.708   5.453
 2801WAT     H2 8946   1.003   6.622   5.387
 2802WAT      O 8947   0.705   6.636   4.092
 2802WAT     H1 8948   0.691   6.643   4.191
 2802WAT     H2 8949   0.789   6.585   4.074
 2803WAT      O 8950   0.410   6.399   4.975
 2803WAT     H1 8951   0.496   6.411   5.025
 2803WAT     H2 8952   0.368   6.312   5.002
 2804WAT      O 8953   1.274   5.972   4.986
 2804WAT     H1 8954   1.295   6.046   5.050
 2804WAT     H2 8955   1.185   5.989   4.943
 2805WAT      O 8956   0.064   7.150   5.055
 2805WAT     H1 8957   0.018   7.232   5.021
 2805WAT     H2 8958   0.162   7.169   5.064
 2806WAT      O 8959   0.367   6.686   4.225
 2806WAT     H1 8960   0.360   6.769   4.169
 2806WAT     H2 8961   0.371   6.606   4.165
 2807WAT      O 8962   0.566   6.123   4.589
 2807WAT     H1 8963   0.578   6.189   4.515
 2807WAT     H2 8964   0.612   6.157   4.672
 2808WAT      O 8965   1.582   6.225   4.196
 2808WAT     H1 8966   1.551   6.286   4.269
 2808WAT     H2 8967   1.632   6.277   4.127
 2809WAT      O 8968   0.402   6.337   5.322
 2809WAT     H1 8969   0.470   6.392   5.275
 2809WAT     H2 8970   0.442   6.249   5.349
 2810WAT      O 8971   1.587   6.365   5.394
 2810WAT     H1 8972   1.495   6.403   5.389
 2810WAT     H2 8973   1.647   6.412   5.329
 2811WAT      O 8974   1.013   5.691   5.494
 2811WAT     H1 8975   1.019   5.776   5.442
 2811WAT     H2 8976   1.045   5.615   5.437
 2812WAT      O 8977   0.504   5.636   5.464
 2812WAT     H1 8978   0.462   5.579   5.394
 2812WAT     H2 8979   0.438   5.705   5.496
 2813WAT      O 8980   0.573   6.456   4.753
 2813WAT     H1 8981   0.617   6.545   4.744
 2813WAT     H2 8982   0.510   6.456   4.830
 2814WAT      O 8983   1.360   6.448   4.769
 2814WAT     H1 8984   1.285   6.448   4.703
 2814WAT     H2 8985   1.397   6.356   4.778
 2815WAT      O 8986   1.209   6.111   3.999
 2815WAT     H1 8987   1.222   6.027   4.053
 2815WAT     H2 8988   1.180   6.185   4.059
 2816WAT      O 8989   0.307   5.799   4.955
 2816WAT     H1 8990   0.284   5.836   5.045
 2816WAT     H2 8991   0.277   5.704   4.949
 2817WAT      O 8992   0.037   6.896   5.006
 2817WAT     H1 8993   0.090   6.847   5.074
 2817WAT     H2 8994   0.059   6.994   5.011
 2818WAT      O 8995   0.732   6.220   4.788
 2818WAT     H1 8996   0.791   6.194   4.712
 2818WAT     H2 8997   0.704   6.316   4.777
 2819WAT      O 8998   1.728   6.521   5.578
 2819WAT     H1 8999   1.682   6.514   5.489
 2819WAT     H2 9000   1.666   6.565   5.644
 2820WAT      O 9001   0.307   5.649   4.342
 2820WAT     H1 9002   0.296   5.743   4.375
 2820WAT     H2 9003   0.302   5.586   4.419
 2821WAT      O 9004   1.622   5.953   4.098
 2821WAT     H1 9005   1.624   5.877   4.162
 2821WAT     H2 9006   1.574   6.030   4.138
 2822WAT      O 9007   1.023   6.352   4.690
 2822WAT     H1 9008   1.038   6.373   4.786
 2822WAT     H2 9009   0.993   6.257   4.681
 2823WAT      O 9010   1.859   7.104   5.329
 2823WAT     H1 9011   1.873   7.131   5.234
 2823WAT     H2 9012   1.942   7.126   5.382
 2824WAT      O 9013   0.350   6.484   5.528
 2824WAT     H1 9014   0.426   6.528   5.576
 2824WAT     H2 9015   0.385   6.437   5.446
 2825WAT      O 9016   1.540   5.860   3.849
 2825WAT     H1 9017   1.479   5.785   3.872
 2825WAT     H2 9018   1.562   5.912   3.932
 2826WAT      O 9019   1.303   6.424   3.766
 2826WAT     H1 9020   1.337   6.331   3.781
 2826WAT     H2 9021   1.321   6.451   3.671
 2827WAT      O 9022   0.319   6.396   4.673
 2827WAT     H1 9023   0.412   6.432   4.678
 2827WAT     H2 9024   0.313   6.311   4.725
 2828WAT      O 9025   0.339   6.095   4.730
 2828WAT     H1 9026   0.287   6.012   4.713
 2828WAT     H2 9027   0.416   6.100   4.666
 2829WAT      O 9028   1.138   5.966   5.402
 2829WAT     H1 9029   1.093   6.029   5.466
 2829WAT     H2 9030   1.231   5.997   5.385
 2830WAT      O 9031   1.160   5.793   5.201
 2830WAT     H1 9032   1.160   5.857   5.278
 2830WAT     H2 9033   1.188   5.841   5.118
 2831WAT      O 9034   0.008   6.912   3.924
 2831WAT     H1 9035  -0.085   6.933   3.893
 2831WAT     H2 9036   0.018   6.813   3.937
 2832WAT      O 9037   1.002   6.382   4.962
 2832WAT     H1 9038   1.043   6.350   5.048
 2832WAT     H2 9039   0.906   6.355   4.959
 2833WAT      O 9040   0.040   6.130   4.838
 2833WAT     H1 9041   0.125   6.097   4.797
 2833WAT     H2 9042   0.053   6.145   4.936
 2834WAT      O 9043   0.189   6.106   5.446
 2834WAT     H1 9044   0.248   6.066   5.376
 2834WAT     H2 9045   0.131   6.177   5.405
 2835WAT      O 9046   1.369   6.536   5.384
 2835WAT     H1 9047   1.408   6.625   5.404
 2835WAT     H2 9048   1.379   6.516   5.287
 2836WAT      O 9049   0.815   6.158   4.049
 2836WAT     H1 9050   0.822   6.069   4.003
 2836WAT     H2 9051   0.721   6.192   4.041
 2837WAT      O 9052   1.657   6.190   4.930
 2837WAT     H1 9053   1.619   6.121   4.992
 2837WAT     H2 9054   1.739   6.154   4.886
 2838WAT      O 9055   0.671   6.050   4.993
 2838WAT     H1 9056   0.637   5.961   4.963
 2838WAT     H2 9057   0.697   6.104   4.913
 2839WAT      O 9058   0.473   6.086   3.915
 2839WAT     H1 9059   0.534   6.166   3.919
 2839WAT     H2 9060   0.378   6.117   3.922
 2840WAT      O 9061   0.159   6.723   5.190
 2840WAT     H1 9062   0.181   6.662   5.266
 2840WAT     H2 9063   0.169   6.674   5.104
 2841WAT      O 9064   1.347   6.645   4.958
 2841WAT     H1 9065   1.371   6.582   4.884
 2841WAT     H2 9066   1.257   6.685   4.940
 2842WAT      O 9067   1.302   6.441   4.033
 2842WAT     H1 9068   1.216   6.410   4.075
 2842WAT     H2 9069   1.298   6.427   3.934
 2843WAT      O 9070   0.083   6.844   4.746
 2843WAT     H1 9071   0.078   6.843   4.846
 2843WAT     H2 9072   0.000   6.803   4.708
 2844WAT      O 9073   1.726   5.721   4.247
 2844WAT     H1 9074   1.799   5.704   4.180
 2844WAT     H2 9075   1.695   5.634   4.285
 2845WAT      O 9076   1.280   6.513   4.396
 2845WAT     H1 9077   1.340   6.432   4.398
 2845WAT     H2 9078   1.320   6.582   4.336
 2846WAT      O 9079   0.830   6.859   5.146
 2846WAT     H1 9080   0.825   6.892   5.241
 2846WAT     H2 9081   0.744   6.878   5.100
 2847WAT      O 9082   1.841   5.761   4.687
 2847WAT     H1 9083   1.880   5.676   4.651
 2847WAT     H2 9084   1.743   5.763   4.668
 2848WAT      O 9085   0.263   5.912   4.444
 2848WAT     H1 9086   0.184   5.963   4.410
 2848WAT     H2 9087   0.254   5.897   4.542
 2849WAT      O 9088   1.194   7.198   3.755
 2849WAT     H1 9089   1.200   7.105   3.792
 2849WAT     H2 9090   1.135   7.198   3.675
 2850WAT      O 9091   0.822   6.588   5.096
 2850WAT     H1 9092   0.862   6.587   5.004
 2850WAT     H2 9093   0.832   6.680   5.136
 2851WAT      O 9094   0.916   6.496   4.015
 2851WAT     H1 9095   0.979   6.534   3.947
 2851WAT     H2 9096   0.956   6.413   4.054
 2852WAT      O 9097   0.372   6.874   5.214
 2852WAT     H1 9098   0.359   6.967   5.180
 2852WAT     H2 9099   0.288   6.822   5.201
 2853WAT      O 9100   1.614   6.878   5.013
 2853WAT     H1 9101   1.674   6.881   5.093
 2853WAT     H2 9102   1.539   6.942   5.026
 2854WAT      O 9103   1.039   6.684   4.420
 2854WAT     H1 9104   0.969   6.637   4.474
 2854WAT     H2 9105   1.098   6.616   4.377
 2855WAT      O 9106   1.014   5.822   4.695
 2855WAT     H1 9107   1.006   5.786   4.602
 2855WAT     H2 9108   1.012   5.746   4.760
 2856WAT      O 9109   1.709   5.971   5.105
 2856WAT     H1 9110   1.782   6.040   5.109
 2856WAT     H2 9111   1.737   5.896   5.046
 2857WAT      O 9112   0.105   6.599   5.450
 2857WAT     H1 9113   0.028   6.566   5.504
 2857WAT     H2 9114   0.190   6.569   5.492
 2858WAT      O 9115   0.672   5.789   5.213
 2858WAT     H1 9116   0.762   5.773   5.173
 2858WAT     H2 9117   0.680   5.794   5.312
 2859WAT      O 9118   0.075   5.931   3.757
 2859WAT     H1 9119  -0.017   5.903   3.728
 2859WAT     H2 9120   0.106   6.008   3.701
 2860WAT      O 9121   1.440   6.442   5.122
 2860WAT     H1 9122   1.383   6.494   5.059
 2860WAT     H2 9123   1.536   6.454   5.098
 2861WAT      O 9124   0.072   5.752   4.042
 2861WAT     H1 9125   0.055   5.835   3.988
 2861WAT     H2 9126   0.162   5.715   4.020
 2862WAT      O 9127   0.613   6.428   5.155
 2862WAT     H1 9128   0.669   6.509   5.138
 2862WAT     H2 9129   0.672   6.348   5.158
 2863WAT      O 9130   0.716   6.151   5.432
 2863WAT     H1 9131   0.735   6.216   5.506
 2863WAT     H2 9132   0.776   6.071   5.441
 2864WAT      O 9133   1.450   6.806   5.357
 2864WAT     H1 9134   1.441   6.796   5.456
 2864WAT     H2 9135   1.546   6.799   5.331
 2865WAT      O 9136   1.674   6.469   4.978
 2865WAT     H1 9137   1.647   6.380   4.941
 2865WAT     H2 9138   1.675   6.537   4.905
 2866WAT      O 9139   1.225   5.911   4.173
 2866WAT     H1 9140   1.290   5.837   4.162
 2866WAT     H2 9141   1.245   5.961   4.257
 2867WAT      O 9142   0.594   6.331   4.376
 2867WAT     H1 9143   0.644   6.416   4.357
 2867WAT     H2 9144   0.506   6.333   4.328
 2868WAT      O 9145   1.777   5.928   5.366
 2868WAT     H1 9146   1.760   5.959   5.272
 2868WAT     H2 9147   1.693   5.891   5.404
 2869WAT      O 9148   1.730   6.520   5.241
 2869WAT     H1 9149   1.768   6.611   5.256
 2869WAT     H2 9150   1.722   6.503   5.142
 2870WAT      O 9151   0.859   6.542   4.585
 2870WAT     H1 9152   0.913   6.473   4.633
 2870WAT     H2 9153   0.827   6.611   4.651
 2871WAT      O 9154   1.083   6.570   3.811
 2871WAT     H1 9155   1.060   6.623   3.729
 2871WAT     H2 9156   1.164   6.514   3.792
 2872WAT      O 9157   0.221   6.900   5.568
 2872WAT     H1 9158   0.156   6.827   5.547
 2872WAT     H2 9159   0.225   6.914   5.666
 2873WAT      O 9160   0.079   6.826   4.377
 2873WAT     H1 9161   0.078   6.779   4.465
 2873WAT     H2 9162   0.161   6.798   4.326
 2874WAT      O 9163   0.672   6.977   5.348
 2874WAT     H1 9164   0.594   6.927   5.386
 2874WAT     H2 9165   0.669   7.072   5.379
 2875WAT      O 9166   1.824   5.778   4.951
 2875WAT     H1 9167   1.820   5.688   4.995
 2875WAT     H2 9168   1.827   5.767   4.852
 2876WAT      O 9169   0.428   6.010   4.244
 2876WAT     H1 9170   0.458   5.938   4.182
 2876WAT     H2 9171   0.389   5.970   4.327
 2877WAT      O 9172   1.705   7.073   4.828
 2877WAT     H1 9173   1.612   7.048   4.801
 2877WAT     H2 9174   1.731   7.023   4.910
 2878WAT      O 9175   0.317   6.133   5.004
 2878WAT     H1 9176   0.355   6.074   5.076
 2878WAT     H2 9177   0.357   6.107   4.916
 2879WAT      O 9178   1.424   5.800   4.836
 2879WAT     H1 9179   1.476   5.735   4.891
 2879WAT     H2 9180   1.375   5.863   4.897
 2880WAT      O 9181   1.001   5.620   4.878
 2880WAT     H1 9182   0.938   5.548   4.847
 2880WAT     H2 9183   1.094   5.584   4.878
 2881WAT      O 9184   0.770   6.916   4.025
 2881WAT     H1 9185   0.724   6.829   4.042
 2881WAT     H2 9186   0.861   6.913   4.066
 2882WAT      O 9187   1.352   5.638   3.892
 2882WAT     H1 9188   1.387   5.597   3.808
 2882WAT     H2 9189   1.262   5.600   3.912
 2883WAT      O 9190   1.300   6.039   4.415
 2883WAT     H1 9191   1.241   6.119   4.419
 2883WAT     H2 9192   1.315   6.004   4.508
 2884WAT      O 9193   1.593   5.807   4.606
 2884WAT     H1 9194   1.509   5.806   4.660
 2884WAT     H2 9195   1.595   5.890   4.550
 2885WAT      O 9196   0.039   6.663   4.024
 2885WAT     H1 9197   0.138   6.652   4.015
 2885WAT     H2 9198  -0.001   6.577   4.056
 2886WAT      O 9199   0.230   6.214   5.699
 2886WAT     H1 9200   0.137   6.212   5.736
 2886WAT     H2 9201   0.231   6.175   5.607
 2887WAT      O 9202   0.225   5.861   6.582
 2887WAT     H1 9203   0.260   5.844   6.674
 2887WAT     H2 9204   0.137   5.816   6.570
 2888WAT      O 9205   0.019   5.954   6.233
 2888WAT     H1 9206  -0.063   5.997   6.272
 2888WAT     H2 9207  -0.009   5.881   6.170
 2889WAT      O 9208   0.569   6.861   6.751
 2889WAT     H1 9209   0.476   6.854   6.714
 2889WAT     H2 9210   0.580   6.950   6.795
 2890WAT      O 9211   1.555   7.097   6.289
 2890WAT     H1 9212   1.498   7.081   6.370
 2890WAT     H2 9213   1.496   7.107   6.209
 2891WAT      O 9214   1.135   6.289   6.303
 2891WAT     H1 9215   1.192   6.367   6.278
 2891WAT     H2 9216   1.075   6.315   6.379
 2892WAT      O 9217   1.755   6.193   5.817
 2892WAT     H1 9218   1.743   6.180   5.718
 2892WAT     H2 9219   1.725   6.112   5.866
 2893WAT      O 9220   0.768   6.730   6.609
 2893WAT     H1 9221   0.690   6.747   6.669
 2893WAT     H2 9222   0.802   6.817   6.573
 2894WAT      O 9223   0.685   6.598   6.251
 2894WAT     H1 9224   0.754   6.582   6.321
 2894WAT     H2 9225   0.612   6.655   6.289
 2895WAT      O 9226   0.335   7.021   6.647
 2895WAT     H1 9227   0.257   6.990   6.594
 2895WAT     H2 9228   0.393   7.079   6.590
 2896WAT      O 9229   1.603   6.033   6.323
 2896WAT     H1 9230   1.529   6.079   6.273
 2896WAT     H2 9231   1.654   6.101   6.376
 2897WAT      O 9232   0.240   6.677   6.472
 2897WAT     H1 9233   0.254   6.593   6.524
 2897WAT     H2 9234   0.185   6.741   6.527
 2898WAT      O 9235   0.606   6.550   5.709
 2898WAT     H1 9236   0.613   6.634   5.655
 2898WAT     H2 9237   0.652   6.563   5.797
 2899WAT      O 9238   0.122   6.229   6.149
 2899WAT     H1 9239   0.077   6.141   6.166
 2899WAT     H2 9240   0.121   6.283   6.233
 2900WAT      O 9241   1.689   6.508   6.198
 2900WAT     H1 9242   1.784   6.479   6.206
 2900WAT     H2 9243   1.681   6.573   6.123
 2901WAT      O 9244   1.641   6.694   6.018
 2901WAT     H1 9245   1.727   6.696   5.966
 2901WAT     H2 9246   1.655   6.741   6.106
 2902WAT      O 9247   0.809   5.590   6.088
 2902WAT     H1 9248   0.849   5.681   6.079
 2902WAT     H2 9249   0.709   5.598   6.094
 2903WAT      O 9250   0.197   6.562   6.850
 2903WAT     H1 9251   0.286   6.517   6.836
 2903WAT     H2 9252   0.124   6.497   6.831
 2904WAT      O 9253   1.525   6.585   5.776
 2904WAT     H1 9254   1.462   6.509   5.789
 2904WAT     H2 9255   1.573   6.603   5.862
 2905WAT      O 9256   1.466   7.003   6.539
 2905WAT     H1 9257   1.407   7.009   6.619
 2905WAT     H2 9258   1.451   6.915   6.493
 2906WAT      O 9259   0.598   6.315   5.856
 2906WAT     H1 9260   0.622   6.384   5.788
 2906WAT     H2 9261   0.520   6.348   5.910
 2907WAT      O 9262   1.281   5.931   6.530
 2907WAT     H1 9263   1.195   5.881   6.517
 2907WAT     H2 9264   1.343   5.877   6.586
 2908WAT      O 9265   0.807   6.191   7.051
 2908WAT     H1 9266   0.760   6.188   7.140
 2908WAT     H2 9267   0.756   6.136   6.985
 2909WAT      O 9268   0.991   5.996   6.828
 2909WAT     H1 9269   0.914   6.030   6.882
 2909WAT     H2 9270   0.957   5.945   6.749
 2910WAT      O 9271   1.041   6.287   6.015
 2910WAT     H1 9272   1.067   6.283   6.111
 2910WAT     H2 9273   0.956   6.236   6.001
 2911WAT      O 9274   0.076   6.397   6.375
 2911WAT     H1 9275   0.175   6.385   6.384
 2911WAT     H2 9276   0.052   6.492   6.396
 2912WAT      O 9277   0.865   5.934   5.781
 2912WAT     H1 9278   0.924   5.997   5.732
 2912WAT     H2 9279   0.884   5.840   5.752
 2913WAT      O 9280   1.362   6.730   6.131
 2913WAT     H1 9281   1.445   6.701   6.083
 2913WAT     H2 9282   1.313   6.797   6.075
 2914WAT      O 9283   0.550   5.782   6.471
 2914WAT     H1 9284   0.545   5.777   6.571
 2914WAT     H2 9285   0.552   5.878   6.442
 2915WAT      O 9286   1.795   6.652   6.459
 2915WAT     H1 9287   1.733   6.637   6.383
 2915WAT     H2 9288   1.743   6.663   6.544
 2916WAT      O 9289   0.321   6.529   5.828
 2916WAT     H1 9290   0.403   6.568   5.786
 2916WAT     H2 9291   0.294   6.447   5.779
 2917WAT      O 9292   1.458   6.321   6.314
 2917WAT     H1 9293   1.453   6.256   6.389
 2917WAT     H2 9294   1.538   6.380   6.327
 2918WAT      O 9295   1.632   6.963   5.667
 2918WAT     H1 9296   1.600   7.057   5.657
 2918WAT     H2 9297   1.556   6.900   5.655
 2919WAT      O 9298   1.400   5.693   6.012
 2919WAT     H1 9299   1.376   5.656   5.922
 2919WAT     H2 9300   1.499   5.709   6.016
 2920WAT      O 9301   0.382   6.286   6.066
 2920WAT     H1 9302   0.427   6.196   6.063
 2920WAT     H2 9303   0.288   6.275   6.099
 2921WAT      O 9304   0.614   5.708   5.703
 2921WAT     H1 9305   0.712   5.686   5.710
 2921WAT     H2 9306   0.583   5.691   5.610
 2922WAT      O 9307   0.922   6.089   6.485
 2922WAT     H1 9308   0.897   6.080   6.389
 2922WAT     H2 9309   0.970   6.007   6.516
 2923WAT      O 9310   0.539   5.650   6.098
 2923WAT     H1 9311   0.458   5.651   6.156
 2923WAT     H2 9312   0.542   5.733   6.043
 2924WAT      O 9313   1.434   6.774   5.627
 2924WAT     H1 9314   1.466   6.698   5.684
 2924WAT     H2 9315   1.342   6.801   5.657
 2925WAT      O 9316   0.297   5.621   5.757
 2925WAT     H1 9317   0.346   5.705   5.736
 2925WAT     H2 9318   0.359   5.556   5.802
 2926WAT      O 9319   0.935   5.822   6.066
 2926WAT     H1 9320   0.887   5.863   5.988
 2926WAT     H2 9321   1.034   5.820   6.047
 2927WAT      O 9322   1.227   7.156   6.379
 2927WAT     H1 9323   1.248   7.230   6.314
 2927WAT     H2 9324   1.295   7.156   6.452
 2928WAT      O 9325   0.459   6.738   6.327
 2928WAT     H1 9326   0.388   6.711   6.392
 2928WAT     H2 9327   0.433   6.710   6.234
 2929WAT      O 9328   1.032   6.135   5.602
 2929WAT     H1 9329   0.991   6.217   5.563
 2929WAT     H2 9330   1.096   6.161   5.675
 2930WAT      O 9331   0.561   5.808   6.733
 2930WAT     H1 9332   0.599   5.724   6.770
 2930WAT     H2 9333   0.473   5.827   6.777
 2931WAT      O 9334   0.866   6.040   6.228
 2931WAT     H1 9335   0.834   6.112   6.166
 2931WAT     H2 9336   0.890   5.959   6.175
 2932WAT      O 9337   1.017   5.625   6.339
 2932WAT     H1 9338   0.945   5.630   6.270
 2932WAT     H2 9339   0.993   5.556   6.408
 2933WAT      O 9340   1.429   6.759   6.453
 2933WAT     H1 9341   1.374   6.675   6.446
 2933WAT     H2 9342   1.455   6.788   6.361
 2934WAT      O 9343   1.466   6.176   6.578
 2934WAT     H1 9344   1.436   6.081   6.585
 2934WAT     H2 9345   1.539   6.192   6.644
 2935WAT      O 9346   1.857   6.419   5.963
 2935WAT     H1 9347   1.899   6.355   6.027
 2935WAT     H2 9348   1.819   6.368   5.885
 2936WAT      O 9349   1.664   6.866   6.243
 2936WAT     H1 9350   1.763   6.874   6.257
 2936WAT     H2 9351   1.619   6.950   6.274
 2937WAT      O 9352   1.390   6.161   5.664
 2937WAT     H1 9353   1.336   6.140   5.745
 2937WAT     H2 9354   1.481   6.120   5.673
 2938WAT      O 9355   0.527   5.842   5.914
 2938WAT     H1 9356   0.554   5.783   5.839
 2938WAT     H2 9357   0.527   5.937   5.883
 2939WAT      O 9358   1.754   6.809   7.174
 2939WAT     H1 9359   1.845   6.770   7.161
 2939WAT     H2 9360   1.762   6.905   7.198
 2940WAT      O 9361   1.064   6.933   6.926
 2940WAT     H1 9362   0.984   6.910   6.981
 2940WAT     H2 9363   1.147   6.907   6.975
 2941WAT      O 9364   1.111   6.781   6.686
 2941WAT     H1 9365   1.071   6.825   6.767
 2941WAT     H2 9366   1.070   6.818   6.603
 2942WAT      O 9367   1.638   6.685   6.665
 2942WAT     H1 9368   1.643   6.766   6.724
 2942WAT     H2 9369   1.552   6.687   6.614
 2943WAT      O 9370   0.705   6.636   5.954
 2943WAT     H1 9371   0.691   6.643   6.053
 2943WAT     H2 9372   0.789   6.585   5.936
 2944WAT      O 9373   0.410   6.399   6.837
 2944WAT     H1 9374   0.496   6.411   6.887
 2944WAT     H2 9375   0.368   6.312   6.864
 2945WAT      O 9376   1.274   5.972   6.848
 2945WAT     H1 9377   1.295   6.046   6.912
 2945WAT     H2 9378   1.185   5.989   6.805
 2946WAT      O 9379   0.064   7.150   6.917
 2946WAT     H1 9380   0.018   7.232   6.883
 2946WAT     H2 9381   0.162   7.169   6.926
 2947WAT      O 9382   0.367   6.686   6.087
 2947WAT     H1 9383   0.360   6.769   6.031
 2947WAT     H2 9384   0.371   6.606   6.027
 2948WAT      O 9385   0.566   6.123   6.451
 2948WAT     H1 9386   0.578   6.189   6.377
 2948WAT     H2 9387   0.612   6.157   6.534
 2949WAT      O 9388   1.582   6.225   6.058
 2949WAT     H1 9389   1.551   6.286   6.131
 2949WAT     H2 9390   1.632   6.277   5.989
 2950WAT      O 9391   0.573   6.456   6.615
 2950WAT     H1 9392   0.617   6.545   6.606
 2950WAT     H2 9393   0.510   6.456   6.692
 2951WAT      O 9394   1.360   6.448   6.631
 2951WAT     H1 9395   1.285   6.448   6.565
 2951WAT     H2 9396   1.397   6.356   6.640
 2952WAT      O 9397   1.209   6.111   5.861
 2952WAT     H1 9398   1.222   6.027   5.915
 2952WAT     H2 9399   1.180   6.185   5.921
 2953WAT      O 9400   0.307   5.799   6.817
 2953WAT     H1 9401   0.284   5.836   6.907
 2953WAT     H2 9402   0.277   5.704   6.811
 2954WAT      O 9403   0.037   6.896   6.868
 2954WAT     H1 9404   0.090   6.847   6.936
 2954WAT     H2 9405   0.059   6.994   6.873
 2955WAT      O 9406   0.732   6.220   6.650
 2955WAT     H1 9407   0.791   6.194   6.574
 2955WAT     H2 9408   0.704   6.316   6.639
 2956WAT      O 9409   0.307   5.649   6.204
 2956WAT     H1 9410   0.296   5.743   6.237
 2956WAT     H2 9411   0.302   5.586   6.281
 2957WAT      O 9412   1.622   5.953   5.960
 2957WAT     H1 9413   1.624   5.877   6.024
 2957WAT     H2 9414   1.574   6.030   6.000
 2958WAT      O 9415   1.023   6.352   6.552
 2958WAT     H1 9416   1.038   6.373   6.648
 2958WAT     H2 9417   0.993   6.257   6.543
 2959WAT      O 9418   1.540   5.860   5.711
 2959WAT     H1 9419   1.479   5.785   5.734
 2959WAT     H2 9420   1.562   5.912   5.794
 2960WAT      O 9421   1.303   6.424   5.628
 2960WAT     H1 9422   1.337   6.331   5.643
 2960WAT     H2 9423   1.321   6.451   5.533
 2961WAT      O 9424   0.319   6.396   6.535
 2961WAT     H1 9425   0.412   6.432   6.540
 2961WAT     H2 9426   0.313   6.311   6.587
 2962WAT      O 9427   0.339   6.095   6.592
 2962WAT     H1 9428   0.287   6.012   6.575
 2962WAT     H2 9429   0.416   6.100   6.528
 2963WAT      O 9430   1.160   5.793   7.063
 2963WAT     H1 9431   1.160   5.857   7.140
 2963WAT     H2 9432   1.188   5.841   6.980
 2964WAT      O 9433   0.008   6.912   5.786
 2964WAT     H1 9434  -0.085   6.933   5.755
 2964WAT     H2 9435   0.018   6.813   5.799
 2965WAT      O 9436   1.002   6.382   6.824
 2965WAT     H1 9437   1.043   6.350   6.910
 2965WAT     H2 9438   0.906   6.355   6.821
 2966WAT      O 9439   0.040   6.130   6.700
 2966WAT     H1 9440   0.125   6.097   6.659
 2966WAT     H2 9441   0.053   6.145   6.798
 2967WAT      O 9442   0.815   6.158   5.911
 2967WAT     H1 9443   0.822   6.069   5.865
 2967WAT     H2 9444   0.721   6.192   5.903
 2968WAT      O 9445   1.657   6.190   6.792
 2968WAT     H1 9446   1.619   6.121   6.854
 2968WAT     H2 9447   1.739   6.154   6.748
 2969WAT      O 9448   0.671   6.050   6.855
 2969WAT     H1 9449   0.637   5.961   6.825
 2969WAT     H2 9450   0.697   6.104   6.775
 2970WAT      O 9451   0.473   6.086   5.777
 2970WAT     H1 9452   0.534   6.166   5.781
 2970WAT     H2 9453   0.378   6.117   5.784
 2971WAT      O 9454   0.159   6.723   7.052
 2971WAT     H1 9455   0.181   6.662   7.128
 2971WAT     H2 9456   0.169   6.674   6.966
 2972WAT      O 9457   1.347   6.645   6.820
 2972WAT     H1 9458   1.371   6.582   6.746
 2972WAT     H2 9459   1.257   6.685   6.802
 2973WAT      O 9460   1.302   6.441   5.895
 2973WAT     H1 9461   1.216   6.410   5.937
 2973WAT     H2 9462   1.298   6.427   5.796
 2974WAT      O 9463   0.083   6.844   6.608
 2974WAT     H1 9464   0.078   6.843   6.708
 2974WAT     H2 9465   0.000   6.803   6.570
 2975WAT      O 9466   1.726   5.721   6.109
 2975WAT     H1 9467   1.799   5.704   6.042
 2975WAT     H2 9468   1.695   5.634   6.147
 2976WAT      O 9469   1.280   6.513   6.258
 2976WAT     H1 9470   1.340   6.432   6.260
 2976WAT     H2 9471   1.320   6.582   6.198
 2977WAT      O 9472   0.830   6.859   7.008
 2977WAT     H1 9473   0.825   6.892   7.103
 2977WAT     H2 9474   0.744   6.878   6.962
 2978WAT      O 9475   1.841   5.761   6.549
 2978WAT     H1 9476   1.880   5.676   6.513
 2978WAT     H2 9477   1.743   5.763   6.530
 2979WAT      O 9478   0.263   5.912   6.306
 2979WAT     H1 9479   0.184   5.963   6.272
 2979WAT     H2 9480   0.254   5.897   6.404
 2980WAT      O 9481   1.194   7.198   5.617
 2980WAT     H1 9482   1.200   7.105   5.654
 2980WAT     H2 9483   1.135   7.198   5.537
 2981WAT      O 9484   0.822   6.588   6.958
 2981WAT     H1 9485   0.862   6.587   6.866
 2981WAT     H2 9486   0.832   6.680   6.998
 2982WAT      O 9487   0.916   6.496   5.877
 2982WAT     H1 9488   0.979   6.534   5.809
 2982WAT     H2 9489   0.956   6.413   5.916
 2983WAT      O 9490   0.372   6.874   7.076
 2983WAT     H1 9491   0.359   6.967   7.042
 2983WAT     H2 9492   0.288   6.822   7.063
 2984WAT      O 9493   1.614   6.878   6.875
 2984WAT     H1 9494   1.674   6.881   6.955
 2984WAT     H2 9495   1.539   6.942   6.888
 2985WAT      O 9496   1.039   6.684   6.282
 2985WAT     H1 9497   0.969   6.637   6.336
 2985WAT     H2 9498   1.098   6.616   6.239
 2986WAT      O 9499   1.014   5.822   6.557
 2986WAT     H1 9500   1.006   5.786   6.464
 2986WAT     H2 9501   1.012   5.746   6.622
 2987WAT      O 9502   1.709   5.971   6.967
 2987WAT     H1 9503   1.782   6.040   6.971
 2987WAT     H2 9504   1.737   5.896   6.908
 2988WAT      O 9505   0.672   5.789   7.075
 2988WAT     H1 9506   0.762   5.773   7.035
 2988WAT     H2 9507   0.680   5.794   7.174
 2989WAT      O 9508   0.075   5.931   5.619
 2989WAT     H1 9509  -0.017   5.903   5.590
 2989WAT     H2 9510   0.106   6.008   5.563
 2990WAT      O 9511   0.072   5.752   5.904
 2990WAT     H1 9512   0.055   5.835   5.850
 2990WAT     H2 9513   0.162   5.715   5.882
 2991WAT      O 9514   1.450   6.806   7.219
 2991WAT     H1 9515   1.441   6.796   7.318
 2991WAT     H2 9516   1.546   6.799   7.193
 2992WAT      O 9517   1.674   6.469   6.840
 2992WAT     H1 9518   1.647   6.380   6.803
 2992WAT     H2 9519   1.675   6.537   6.767
 2993WAT      O 9520   1.225   5.911   6.035
 2993WAT     H1 9521   1.290   5.837   6.024
 2993WAT     H2 9522   1.245   5.961   6.119
 2994WAT      O 9523   0.594   6.331   6.238
 2994WAT     H1 9524   0.644   6.416   6.219
 2994WAT     H2 9525   0.506   6.333   6.190
 2995WAT      O 9526   1.730   6.520   7.103
 2995WAT     H1 9527   1.768   6.611   7.118
 2995WAT     H2 9528   1.722   6.503   7.004
 2996WAT      O 9529   0.859   6.542   6.447
 2996WAT     H1 9530   0.913   6.473   6.495
 2996WAT     H2 9531   0.827   6.611   6.513
 2997WAT      O 9532   1.083   6.570   5.673
 2997WAT     H1 9533   1.060   6.623   5.591
 2997WAT     H2 9534   1.164   6.514   5.654
 2998WAT      O 9535   0.079   6.826   6.239
 2998WAT     H1 9536   0.078   6.779   6.327
 2998WAT     H2 9537   0.161   6.798   6.188
 2999WAT      O 9538   1.824   5.778   6.813
 2999WAT     H1 9539   1.820   5.688   6.857
 2999WAT     H2 9540   1.827   5.767   6.714
 3000WAT      O 9541   0.428   6.010   6.106
 3000WAT     H1 9542   0.458   5.938   6.044
 3000WAT     H2 9543   0.389   5.970   6.189
 3001WAT      O 9544   1.705   7.073   6.690
 3001WAT     H1 9545   1.612   7.048   6.663
 3001WAT     H2 9546   1.731   7.023   6.772
 3002WAT      O 9547   0.317   6.133   6.866
 3002WAT     H1 9548   0.355   6.074   6.938
 3002WAT     H2 9549   0.357   6.107   6.778
 3003WAT      O 9550   1.424   5.800   6.698
 3003WAT     H1 9551   1.476   5.735   6.753
 3003WAT     H2 9552   1.375   5.863   6.759
 3004WAT      O 9553   1.001   5.620   6.740
 3004WAT     H1 9554   0.938   5.548   6.709
 3004WAT     H2 9555   1.094   5.584   6.740
 3005WAT      O 9556   0.770   6.916   5.887
 3005WAT     H1 9557   0.724   6.829   5.904
 3005WAT     H2 9558   0.861   6.913   5.928
 3006WAT      O 9559   1.352   5.638   5.754
 3006WAT     H1 9560   1.387   5.597   5.670
 3006WAT     H2 9561   1.262   5.600   5.774
 3007WAT      O 9562   1.300   6.039   6.277
 3007WAT     H1 9563   1.241   6.119   6.281
 3007WAT     H2 9564   1.315   6.004   6.370
 3008WAT      O 9565   1.593   5.807   6.468
 3008WAT     H1 9566   1.509   5.806   6.522
 3008WAT     H2 9567   1.595   5.890   6.412
 3009WAT      O 9568   0.039   6.663   5.886
 3009WAT     H1 9569   0.138   6.652   5.877
 3009WAT     H2 9570  -0.001   6.577   5.918
 3010WAT      O 9571   2.092   0.628   0.113
 3010WAT     H1 9572   1.999   0.626   0.150
 3010WAT     H2 9573   2.093   0.589   0.021
 3011WAT      O 9574   2.087   0.275   0.996
 3011WAT     H1 9575   2.122   0.258   1.088
 3011WAT     H2 9576   1.999   0.230   0.984
 3012WAT      O 9577   1.881   0.368   0.647
 3012WAT     H1 9578   1.799   0.411   0.686
 3012WAT     H2 9579   1.853   0.295   0.584
 3013WAT      O 9580   2.431   1.275   1.165
 3013WAT     H1 9581   2.338   1.268   1.128
 3013WAT     H2 9582   2.442   1.364   1.209
 3014WAT      O 9583   3.417   1.511   0.703
 3014WAT     H1 9584   3.360   1.495   0.784
 3014WAT     H2 9585   3.358   1.521   0.623
 3015WAT      O 9586   2.997   0.703   0.717
 3015WAT     H1 9587   3.054   0.781   0.692
 3015WAT     H2 9588   2.937   0.729   0.793
 3016WAT      O 9589   3.617   0.607   0.231
 3016WAT     H1 9590   3.605   0.594   0.132
 3016WAT     H2 9591   3.587   0.526   0.280
 3017WAT      O 9592   2.630   1.144   1.023
 3017WAT     H1 9593   2.552   1.161   1.083
 3017WAT     H2 9594   2.664   1.231   0.987
 3018WAT      O 9595   2.712   0.798   1.823
 3018WAT     H1 9596   2.708   0.874   1.888
 3018WAT     H2 9597   2.734   0.834   1.732
 3019WAT      O 9598   2.547   1.012   0.665
 3019WAT     H1 9599   2.616   0.996   0.735
 3019WAT     H2 9600   2.474   1.069   0.703
 3020WAT      O 9601   2.548   1.161   1.803
 3020WAT     H1 9602   2.608   1.240   1.817
 3020WAT     H2 9603   2.462   1.192   1.762
 3021WAT      O 9604   2.197   1.435   1.061
 3021WAT     H1 9605   2.119   1.404   1.008
 3021WAT     H2 9606   2.255   1.493   1.004
 3022WAT      O 9607   3.322   1.505   1.339
 3022WAT     H1 9608   3.346   1.599   1.365
 3022WAT     H2 9609   3.306   1.451   1.421
 3023WAT      O 9610   2.300   0.392   1.499
 3023WAT     H1 9611   2.382   0.336   1.508
 3023WAT     H2 9612   2.219   0.334   1.503
 3024WAT      O 9613   3.465   0.447   0.737
 3024WAT     H1 9614   3.391   0.493   0.687
 3024WAT     H2 9615   3.516   0.515   0.790
 3025WAT      O 9616   2.093   1.713   0.483
 3025WAT     H1 9617   2.127   1.790   0.537
 3025WAT     H2 9618   2.137   1.713   0.393
 3026WAT      O 9619   2.989   1.341   1.690
 3026WAT     H1 9620   3.036   1.341   1.778
 3026WAT     H2 9621   2.941   1.254   1.679
 3027WAT      O 9622   2.092   1.434   0.538
 3027WAT     H1 9623   2.066   1.530   0.538
 3027WAT     H2 9624   2.021   1.380   0.583
 3028WAT      O 9625   2.102   1.091   0.886
 3028WAT     H1 9626   2.116   1.007   0.938
 3028WAT     H2 9627   2.047   1.155   0.941
 3029WAT      O 9628   2.482   1.786   1.439
 3029WAT     H1 9629   2.390   1.769   1.474
 3029WAT     H2 9630   2.510   1.878   1.465
 3030WAT      O 9631   2.468   0.964   0.123
 3030WAT     H1 9632   2.475   1.048   0.069
 3030WAT     H2 9633   2.514   0.977   0.211
 3031WAT      O 9634   3.456   0.114   1.480
 3031WAT     H1 9635   3.438   0.181   1.408
 3031WAT     H2 9636   3.453   0.160   1.569
 3032WAT      O 9637   1.984   0.643   0.563
 3032WAT     H1 9638   1.939   0.555   0.580
 3032WAT     H2 9639   1.983   0.697   0.647
 3033WAT      O 9640   3.704   1.767   0.359
 3033WAT     H1 9641   3.758   1.738   0.439
 3033WAT     H2 9642   3.734   1.857   0.330
 3034WAT      O 9643   3.551   0.922   0.612
 3034WAT     H1 9644   3.646   0.893   0.620
 3034WAT     H2 9645   3.543   0.987   0.537
 3035WAT      O 9646   3.503   1.108   0.432
 3035WAT     H1 9647   3.589   1.110   0.380
 3035WAT     H2 9648   3.517   1.155   0.520
 3036WAT      O 9649   1.975   0.737   1.597
 3036WAT     H1 9650   2.063   0.724   1.642
 3036WAT     H2 9651   1.962   0.834   1.575
 3037WAT      O 9652   2.475   1.365   0.726
 3037WAT     H1 9653   2.426   1.278   0.735
 3037WAT     H2 9654   2.452   1.408   0.639
 3038WAT      O 9655   3.155   1.228   1.423
 3038WAT     H1 9656   3.192   1.155   1.365
 3038WAT     H2 9657   3.207   1.233   1.508
 3039WAT      O 9658   2.671   0.004   0.502
 3039WAT     H1 9659   2.711   0.095   0.493
 3039WAT     H2 9660   2.571   0.012   0.508
 3040WAT      O 9661   2.059   0.976   1.264
 3040WAT     H1 9662   2.148   0.931   1.250
 3040WAT     H2 9663   1.986   0.911   1.245
 3041WAT      O 9664   3.387   0.999   0.190
 3041WAT     H1 9665   3.324   0.923   0.203
 3041WAT     H2 9666   3.435   1.017   0.276
 3042WAT      O 9667   3.049   1.792   1.616
 3042WAT     H1 9668   3.073   1.852   1.540
 3042WAT     H2 9669   3.056   1.697   1.586
 3043WAT      O 9670   2.179   0.251   1.801
 3043WAT     H1 9671   2.250   0.322   1.807
 3043WAT     H2 9672   2.091   0.290   1.829
 3044WAT      O 9673   3.328   1.417   0.953
 3044WAT     H1 9674   3.269   1.423   1.033
 3044WAT     H2 9675   3.313   1.329   0.907
 3045WAT      O 9676   3.529   1.714   0.572
 3045WAT     H1 9677   3.488   1.691   0.484
 3045WAT     H2 9678   3.511   1.640   0.637
 3046WAT      O 9679   2.460   0.729   0.270
 3046WAT     H1 9680   2.484   0.798   0.202
 3046WAT     H2 9681   2.382   0.762   0.324
 3047WAT      O 9682   3.143   0.345   0.944
 3047WAT     H1 9683   3.057   0.295   0.931
 3047WAT     H2 9684   3.205   0.291   1.000
 3048WAT      O 9685   3.438   1.662   0.307
 3048WAT     H1 9686   3.527   1.708   0.310
 3048WAT     H2 9687   3.417   1.638   0.212
 3049WAT      O 9688   2.669   0.605   1.465
 3049WAT     H1 9689   2.622   0.602   1.554
 3049WAT     H2 9690   2.618   0.550   1.399
 3050WAT      O 9691   3.256   0.469   1.674
 3050WAT     H1 9692   3.236   0.512   1.762
 3050WAT     H2 9693   3.334   0.407   1.683
 3051WAT      O 9694   2.835   0.890   1.572
 3051WAT     H1 9695   2.881   0.806   1.543
 3051WAT     H2 9696   2.779   0.924   1.497
 3052WAT      O 9697   2.853   0.410   1.242
 3052WAT     H1 9698   2.776   0.444   1.296
 3052WAT     H2 9699   2.819   0.359   1.163
 3053WAT      O 9700   2.903   0.701   0.429
 3053WAT     H1 9701   2.929   0.697   0.525
 3053WAT     H2 9702   2.818   0.650   0.415
 3054WAT      O 9703   1.938   0.811   0.789
 3054WAT     H1 9704   2.037   0.799   0.798
 3054WAT     H2 9705   1.914   0.906   0.810
 3055WAT      O 9706   1.992   1.821   1.571
 3055WAT     H1 9707   1.982   1.806   1.670
 3055WAT     H2 9708   1.906   1.857   1.535
 3056WAT      O 9709   2.727   0.348   0.195
 3056WAT     H1 9710   2.786   0.411   0.146
 3056WAT     H2 9711   2.746   0.254   0.166
 3057WAT      O 9712   3.581   0.585   1.831
 3057WAT     H1 9713   3.555   0.674   1.795
 3057WAT     H2 9714   3.579   0.517   1.758
 3058WAT      O 9715   3.224   1.144   0.545
 3058WAT     H1 9716   3.307   1.115   0.497
 3058WAT     H2 9717   3.175   1.211   0.489
 3059WAT      O 9718   2.412   0.196   0.885
 3059WAT     H1 9719   2.407   0.191   0.985
 3059WAT     H2 9720   2.414   0.292   0.856
 3060WAT      O 9721   2.870   1.456   0.477
 3060WAT     H1 9722   2.824   1.528   0.425
 3060WAT     H2 9723   2.866   1.476   0.575
 3061WAT      O 9724   2.213   1.801   0.853
 3061WAT     H1 9725   2.263   1.715   0.859
 3061WAT     H2 9726   2.278   1.878   0.850
 3062WAT      O 9727   3.657   1.066   0.873
 3062WAT     H1 9728   3.595   1.051   0.797
 3062WAT     H2 9729   3.605   1.077   0.958
 3063WAT      O 9730   3.089   1.550   1.506
 3063WAT     H1 9731   3.095   1.473   1.570
 3063WAT     H2 9732   3.037   1.524   1.426
 3064WAT      O 9733   2.183   0.943   0.242
 3064WAT     H1 9734   2.265   0.982   0.200
 3064WAT     H2 9735   2.156   0.861   0.193
 3065WAT      O 9736   3.320   0.735   0.728
 3065WAT     H1 9737   3.315   0.670   0.803
 3065WAT     H2 9738   3.400   0.794   0.741
 3066WAT      O 9739   2.323   1.266   1.727
 3066WAT     H1 9740   2.273   1.267   1.641
 3066WAT     H2 9741   2.260   1.248   1.803
 3067WAT      O 9742   2.973   1.776   0.237
 3067WAT     H1 9743   2.913   1.714   0.287
 3067WAT     H2 9744   3.004   1.732   0.152
 3068WAT      O 9745   2.064   0.285   1.498
 3068WAT     H1 9746   1.984   0.345   1.485
 3068WAT     H2 9747   2.054   0.236   1.584
 3069WAT      O 9748   3.494   1.377   0.081
 3069WAT     H1 9749   3.462   1.471   0.071
 3069WAT     H2 9750   3.418   1.314   0.069
 3070WAT      O 9751   2.326   1.743   0.323
 3070WAT     H1 9752   2.359   1.782   0.409
 3070WAT     H2 9753   2.402   1.736   0.258
 3071WAT      O 9754   3.262   0.107   0.426
 3071WAT     H1 9755   3.238   0.070   0.336
 3071WAT     H2 9756   3.361   0.123   0.430
 3072WAT      O 9757   2.111   1.785   1.241
 3072WAT     H1 9758   2.168   1.720   1.291
 3072WAT     H2 9759   2.095   1.752   1.148
 3073WAT      O 9760   2.802   1.698   0.904
 3073WAT     H1 9761   2.882   1.641   0.925
 3073WAT     H2 9762   2.753   1.658   0.827
 3074WAT      O 9763   2.244   0.700   0.480
 3074WAT     H1 9764   2.289   0.610   0.477
 3074WAT     H2 9765   2.150   0.689   0.513
 3075WAT      O 9766   3.409   0.222   1.729
 3075WAT     H1 9767   3.404   0.259   1.821
 3075WAT     H2 9768   3.337   0.153   1.717
 3076WAT      O 9769   2.476   0.122   0.117
 3076WAT     H1 9770   2.574   0.100   0.124
 3076WAT     H2 9771   2.445   0.105   0.024
 3077WAT      O 9772   2.643   0.264   1.749
 3077WAT     H1 9773   2.710   0.203   1.792
 3077WAT     H2 9774   2.570   0.283   1.814
 3078WAT      O 9775   2.750   1.514   1.195
 3078WAT     H1 9776   2.727   1.489   1.101
 3078WAT     H2 9777   2.811   1.445   1.234
 3079WAT      O 9778   3.213   0.590   1.433
 3079WAT     H1 9779   3.241   0.547   1.518
 3079WAT     H2 9780   3.238   0.686   1.434
 3080WAT      O 9781   2.665   1.402   0.924
 3080WAT     H1 9782   2.755   1.416   0.882
 3080WAT     H2 9783   2.594   1.404   0.853
 3081WAT      O 9784   2.784   0.503   0.899
 3081WAT     H1 9785   2.759   0.494   0.803
 3081WAT     H2 9786   2.832   0.421   0.930
 3082WAT      O 9787   2.401   0.064   0.512
 3082WAT     H1 9788   2.320   0.065   0.570
 3082WAT     H2 9789   2.404   0.147   0.457
 3083WAT      O 9790   3.296   1.188   0.041
 3083WAT     H1 9791   3.328   1.112   0.098
 3083WAT     H2 9792   3.204   1.215   0.071
 3084WAT      O 9793   2.159   0.035   0.171
 3084WAT     H1 9794   2.208   0.119   0.150
 3084WAT     H2 9795   2.221  -0.030   0.216
 3085WAT      O 9796   2.797   0.236   0.480
 3085WAT     H1 9797   2.749   0.277   0.402
 3085WAT     H2 9798   2.896   0.234   0.461
 3086WAT      O 9799   2.938   0.683   1.464
 3086WAT     H1 9800   2.858   0.622   1.467
 3086WAT     H2 9801   3.019   0.630   1.440
 3087WAT      O 9802   3.089   1.570   0.793
 3087WAT     H1 9803   3.110   1.644   0.728
 3087WAT     H2 9804   3.157   1.570   0.866
 3088WAT      O 9805   2.321   1.152   0.741
 3088WAT     H1 9806   2.250   1.125   0.806
 3088WAT     H2 9807   2.295   1.124   0.648
 3089WAT      O 9808   3.133   1.797   0.591
 3089WAT     H1 9809   3.177   1.861   0.527
 3089WAT     H2 9810   3.083   1.849   0.661
 3090WAT      O 9811   2.894   0.549   0.016
 3090WAT     H1 9812   2.853   0.631  -0.023
 3090WAT     H2 9813   2.958   0.575   0.089
 3091WAT      O 9814   1.940   0.556   1.386
 3091WAT     H1 9815   2.032   0.555   1.345
 3091WAT     H2 9816   1.934   0.630   1.453
 3092WAT      O 9817   2.423   0.222   1.147
 3092WAT     H1 9818   2.461   0.138   1.184
 3092WAT     H2 9819   2.335   0.241   1.191
 3093WAT      O 9820   2.728   0.454   0.642
 3093WAT     H1 9821   2.696   0.526   0.580
 3093WAT     H2 9822   2.752   0.373   0.589
 3094WAT      O 9823   2.879   0.039   0.753
 3094WAT     H1 9824   2.807   0.044   0.684
 3094WAT     H2 9825   2.855  -0.030   0.822
 3095WAT      O 9826   3.291   1.173   0.867
 3095WAT     H1 9827   3.236   1.089   0.860
 3095WAT     H2 9828   3.317   1.202   0.775
 3096WAT      O 9829   3.328   0.590   0.992
 3096WAT     H1 9830   3.298   0.495   0.999
 3096WAT     H2 9831   3.401   0.606   1.058
 3097WAT      O 9832   3.719   0.833   0.377
 3097WAT     H1 9833   3.761   0.769   0.441
 3097WAT     H2 9834   3.681   0.782   0.299
 3098WAT      O 9835   2.350   1.385   0.174
 3098WAT     H1 9836   2.263   1.370   0.221
 3098WAT     H2 9837   2.333   1.411   0.079
 3099WAT      O 9838   3.526   1.280   0.657
 3099WAT     H1 9839   3.625   1.288   0.671
 3099WAT     H2 9840   3.481   1.364   0.688
 3100WAT      O 9841   3.252   0.575   0.078
 3100WAT     H1 9842   3.198   0.554   0.159
 3100WAT     H2 9843   3.343   0.534   0.087
 3101WAT      O 9844   2.389   0.256   0.328
 3101WAT     H1 9845   2.416   0.197   0.253
 3101WAT     H2 9846   2.389   0.351   0.297
 3102WAT      O 9847   3.616   1.223   1.588
 3102WAT     H1 9848   3.707   1.184   1.575
 3102WAT     H2 9849   3.624   1.319   1.612
 3103WAT      O 9850   2.926   1.347   1.340
 3103WAT     H1 9851   2.846   1.324   1.395
 3103WAT     H2 9852   3.009   1.321   1.389
 3104WAT      O 9853   3.454   1.629   1.625
 3104WAT     H1 9854   3.481   1.663   1.535
 3104WAT     H2 9855   3.533   1.591   1.671
 3105WAT      O 9856   2.973   1.195   1.100
 3105WAT     H1 9857   2.933   1.239   1.181
 3105WAT     H2 9858   2.932   1.232   1.017
 3106WAT      O 9859   3.500   1.099   1.079
 3106WAT     H1 9860   3.505   1.180   1.138
 3106WAT     H2 9861   3.414   1.101   1.028
 3107WAT      O 9862   2.777   0.089   1.402
 3107WAT     H1 9863   2.802   0.069   1.307
 3107WAT     H2 9864   2.849   0.145   1.444
 3108WAT      O 9865   2.842   1.116   1.719
 3108WAT     H1 9866   2.743   1.122   1.729
 3108WAT     H2 9867   2.865   1.036   1.663
 3109WAT      O 9868   2.567   1.050   0.368
 3109WAT     H1 9869   2.553   1.057   0.467
 3109WAT     H2 9870   2.651   0.999   0.350
 3110WAT      O 9871   2.272   0.813   1.251
 3110WAT     H1 9872   2.358   0.825   1.301
 3110WAT     H2 9873   2.230   0.726   1.278
 3111WAT      O 9874   3.136   0.386   1.262
 3111WAT     H1 9875   3.157   0.460   1.326
 3111WAT     H2 9876   3.047   0.403   1.219
 3112WAT      O 9877   1.926   1.564   1.331
 3112WAT     H1 9878   1.880   1.646   1.297
 3112WAT     H2 9879   2.024   1.583   1.340
 3113WAT      O 9880   2.229   1.100   0.501
 3113WAT     H1 9881   2.222   1.183   0.445
 3113WAT     H2 9882   2.233   1.020   0.441
 3114WAT      O 9883   2.428   0.537   0.865
 3114WAT     H1 9884   2.440   0.603   0.791
 3114WAT     H2 9885   2.474   0.571   0.948
 3115WAT      O 9886   3.114   1.348   0.388
 3115WAT     H1 9887   3.164   1.425   0.428
 3115WAT     H2 9888   3.019   1.350   0.420
 3116WAT      O 9889   3.134   1.445   1.142
 3116WAT     H1 9890   3.181   1.458   1.229
 3116WAT     H2 9891   3.068   1.371   1.151
 3117WAT      O 9892   3.444   0.639   0.472
 3117WAT     H1 9893   3.413   0.700   0.545
 3117WAT     H2 9894   3.494   0.691   0.403
 3118WAT      O 9895   2.216   1.510   1.329
 3118WAT     H1 9896   2.195   1.466   1.242
 3118WAT     H2 9897   2.313   1.536   1.332
 3119WAT      O 9898   2.264   0.751   1.598
 3119WAT     H1 9899   2.332   0.806   1.551
 3119WAT     H2 9900   2.304   0.663   1.625
 3120WAT      O 9901   3.449   0.779   1.670
 3120WAT     H1 9902   3.357   0.817   1.665
 3120WAT     H2 9903   3.509   0.826   1.605
 3121WAT      O 9904   2.875   0.105   1.770
 3121WAT     H1 9905   2.881   0.190   1.718
 3121WAT     H2 9906   2.907   0.029   1.713
 3122WAT      O 9907   2.366   0.050   1.740
 3122WAT     H1 9908   2.324  -0.007   1.670
 3122WAT     H2 9909   2.300   0.119   1.772
 3123WAT      O 9910   2.435   0.870   1.029
 3123WAT     H1 9911   2.479   0.959   1.020
 3123WAT     H2 9912   2.372   0.870   1.106
 3124WAT      O 9913   3.222   0.862   1.045
 3124WAT     H1 9914   3.147   0.862   0.979
 3124WAT     H2 9915   3.259   0.770   1.054
 3125WAT      O 9916   3.071   0.525   0.275
 3125WAT     H1 9917   3.084   0.441   0.329
 3125WAT     H2 9918   3.042   0.599   0.335
 3126WAT      O 9919   2.169   0.213   1.231
 3126WAT     H1 9920   2.146   0.250   1.321
 3126WAT     H2 9921   2.139   0.118   1.225
 3127WAT      O 9922   1.899   1.310   1.282
 3127WAT     H1 9923   1.952   1.261   1.350
 3127WAT     H2 9924   1.921   1.408   1.287
 3128WAT      O 9925   2.594   0.634   1.064
 3128WAT     H1 9926   2.653   0.608   0.988
 3128WAT     H2 9927   2.566   0.730   1.053
 3129WAT      O 9928   3.590   0.935   1.854
 3129WAT     H1 9929   3.544   0.928   1.765
 3129WAT     H2 9930   3.528   0.979   1.920
 3130WAT      O 9931   2.169   0.063   0.618
 3130WAT     H1 9932   2.158   0.157   0.651
 3130WAT     H2 9933   2.164   0.000   0.695
 3131WAT      O 9934   3.484   0.367   0.374
 3131WAT     H1 9935   3.486   0.291   0.438
 3131WAT     H2 9936   3.436   0.444   0.414
 3132WAT      O 9937   2.885   0.766   0.966
 3132WAT     H1 9938   2.900   0.787   1.062
 3132WAT     H2 9939   2.855   0.671   0.957
 3133WAT      O 9940   2.842   1.573   1.700
 3133WAT     H1 9941   2.822   1.617   1.612
 3133WAT     H2 9942   2.881   1.482   1.684
 3134WAT      O 9943   3.721   1.518   1.605
 3134WAT     H1 9944   3.735   1.545   1.510
 3134WAT     H2 9945   3.804   1.540   1.658
 3135WAT      O 9946   2.212   0.898   1.804
 3135WAT     H1 9947   2.288   0.942   1.852
 3135WAT     H2 9948   2.247   0.851   1.722
 3136WAT      O 9949   3.402   0.274   0.125
 3136WAT     H1 9950   3.341   0.199   0.148
 3136WAT     H2 9951   3.424   0.326   0.208
 3137WAT      O 9952   3.165   0.838   0.042
 3137WAT     H1 9953   3.199   0.745   0.057
 3137WAT     H2 9954   3.183   0.865  -0.053
 3138WAT      O 9955   2.930   1.333   0.849
 3138WAT     H1 9956   2.937   1.249   0.794
 3138WAT     H2 9957   2.992   1.402   0.813
 3139WAT      O 9958   2.181   0.810   0.949
 3139WAT     H1 9959   2.274   0.846   0.954
 3139WAT     H2 9960   2.175   0.725   1.001
 3140WAT      O 9961   2.201   0.509   1.006
 3140WAT     H1 9962   2.149   0.426   0.989
 3140WAT     H2 9963   2.278   0.514   0.942
 3141WAT      O 9964   3.000   0.380   1.678
 3141WAT     H1 9965   2.955   0.443   1.742
 3141WAT     H2 9966   3.093   0.411   1.661
 3142WAT      O 9967   3.022   0.207   1.477
 3142WAT     H1 9968   3.022   0.271   1.554
 3142WAT     H2 9969   3.050   0.255   1.394
 3143WAT      O 9970   1.950   1.801   0.927
 3143WAT     H1 9971   1.908   1.715   0.900
 3143WAT     H2 9972   2.044   1.804   0.893
 3144WAT      O 9973   2.366   1.568   0.910
 3144WAT     H1 9974   2.432   1.642   0.919
 3144WAT     H2 9975   2.410   1.489   0.868
 3145WAT      O 9976   2.864   0.796   1.238
 3145WAT     H1 9977   2.905   0.764   1.324
 3145WAT     H2 9978   2.768   0.769   1.235
 3146WAT      O 9979   1.902   0.544   1.114
 3146WAT     H1 9980   1.987   0.511   1.073
 3146WAT     H2 9981   1.915   0.559   1.212
 3147WAT      O 9982   2.051   0.520   1.722
 3147WAT     H1 9983   2.110   0.480   1.652
 3147WAT     H2 9984   1.993   0.591   1.681
 3148WAT      O 9985   3.231   0.950   1.660
 3148WAT     H1 9986   3.270   1.039   1.680
 3148WAT     H2 9987   3.241   0.930   1.563
 3149WAT      O 9988   2.677   0.572   0.325
 3149WAT     H1 9989   2.684   0.483   0.279
 3149WAT     H2 9990   2.583   0.606   0.317
 3150WAT      O 9991   3.519   0.604   1.206
 3150WAT     H1 9992   3.481   0.535   1.268
 3150WAT     H2 9993   3.601   0.568   1.162
 3151WAT      O 9994   2.114   1.564   1.744
 3151WAT     H1 9995   2.084   1.621   1.820
 3151WAT     H2 9996   2.107   1.467   1.770
 3152WAT      O 9997   2.533   0.464   1.269
 3152WAT     H1 9998   2.499   0.375   1.239
 3152WAT     H2 9999   2.559   0.518   1.189
 3153WAT      O10000   2.792   1.678   1.465
 3153WAT     H110001   2.768   1.660   1.370
 3153WAT     H210002   2.822   1.772   1.475
 3154WAT      O10003   2.335   0.500   0.191
 3154WAT     H110004   2.396   0.580   0.195
 3154WAT     H210005   2.240   0.531   0.198
 3155WAT      O10006   2.021   1.137   1.466
 3155WAT     H110007   2.043   1.076   1.542
 3155WAT     H210008   2.031   1.088   1.380
 3156WAT      O10009   3.209   1.059   1.234
 3156WAT     H110010   3.233   0.996   1.160
 3156WAT     H210011   3.119   1.099   1.216
 3157WAT      O10012   3.164   0.855   0.309
 3157WAT     H110013   3.078   0.824   0.351
 3157WAT     H210014   3.160   0.841   0.210
 3158WAT      O10015   3.621   1.747   1.154
 3158WAT     H110016   3.682   1.777   1.081
 3158WAT     H210017   3.583   1.658   1.132
 3159WAT      O10018   3.114   1.731   1.128
 3159WAT     H110019   3.198   1.736   1.074
 3159WAT     H210020   3.091   1.635   1.146
 3160WAT      O10021   1.945   1.258   1.022
 3160WAT     H110022   1.940   1.257   1.122
 3160WAT     H210023   1.862   1.217   0.984
 3161WAT      O10024   2.550   1.662   1.716
 3161WAT     H110025   2.494   1.743   1.725
 3161WAT     H210026   2.602   1.666   1.630
 3162WAT      O10027   2.765   0.086   0.133
 3162WAT     H110028   2.816   0.087   0.047
 3162WAT     H210029   2.821   0.044   0.204
 3163WAT      O10030   3.588   0.135   0.523
 3163WAT     H110031   3.661   0.118   0.456
 3163WAT     H210032   3.557   0.048   0.561
 3164WAT      O10033   3.250   1.573   0.477
 3164WAT     H110034   3.317   1.585   0.403
 3164WAT     H210035   3.210   1.662   0.500
 3165WAT      O10036   1.992   1.794   1.851
 3165WAT     H110037   1.951   1.720   1.904
 3165WAT     H210038   2.056   1.845   1.909
 3166WAT      O10039   3.142   0.927   0.672
 3166WAT     H110040   3.202   0.846   0.674
 3166WAT     H210041   3.182   0.996   0.612
 3167WAT      O10042   2.692   1.273   1.422
 3167WAT     H110043   2.687   1.306   1.517
 3167WAT     H210044   2.606   1.292   1.376
 3168WAT      O10045   2.534   1.616   0.154
 3168WAT     H110046   2.543   1.626   0.055
 3168WAT     H210047   2.494   1.527   0.175
 3169WAT      O10048   3.512   1.720   1.394
 3169WAT     H110049   3.565   1.730   1.310
 3169WAT     H210050   3.485   1.810   1.428
 3170WAT      O10051   3.703   0.175   0.963
 3170WAT     H110052   3.742   0.090   0.927
 3170WAT     H210053   3.605   0.177   0.944
 3171WAT      O10054   2.125   0.326   0.720
 3171WAT     H110055   2.046   0.377   0.686
 3171WAT     H210056   2.116   0.311   0.818
 3172WAT      O10057   3.056   1.612   0.031
 3172WAT     H110058   3.062   1.519   0.068
 3172WAT     H210059   2.997   1.612  -0.049
 3173WAT      O10060   2.684   1.002   1.372
 3173WAT     H110061   2.724   1.001   1.280
 3173WAT     H210062   2.694   1.094   1.412
 3174WAT      O10063   2.778   0.910   0.291
 3174WAT     H110064   2.841   0.948   0.223
 3174WAT     H210065   2.818   0.827   0.330
 3175WAT      O10066   3.366   1.607   0.044
 3175WAT     H110067   3.274   1.644   0.051
 3175WAT     H210068   3.404   1.627  -0.046
 3176WAT      O10069   2.234   1.288   1.490
 3176WAT     H110070   2.221   1.381   1.456
 3176WAT     H210071   2.150   1.236   1.477
 3177WAT      O10072   3.476   1.292   1.289
 3177WAT     H110073   3.536   1.295   1.369
 3177WAT     H210074   3.401   1.356   1.302
 3178WAT      O10075   2.901   1.098   0.696
 3178WAT     H110076   2.831   1.051   0.750
 3178WAT     H210077   2.960   1.030   0.653
 3179WAT      O10078   2.876   0.236   0.971
 3179WAT     H110079   2.868   0.200   0.878
 3179WAT     H210080   2.874   0.160   1.036
 3180WAT      O10081   2.452   1.487   0.491
 3180WAT     H110082   2.494   1.429   0.421
 3180WAT     H210083   2.408   1.566   0.447
 3181WAT      O10084   3.571   0.385   1.381
 3181WAT     H110085   3.644   0.454   1.385
 3181WAT     H210086   3.599   0.310   1.322
 3182WAT      O10087   2.117   1.348   0.290
 3182WAT     H110088   2.021   1.349   0.263
 3182WAT     H210089   2.129   1.401   0.374
 3183WAT      O10090   1.967   1.013   1.726
 3183WAT     H110091   1.890   0.980   1.780
 3183WAT     H210092   2.052   0.983   1.768
 3184WAT      O10093   2.534   0.203   1.489
 3184WAT     H110094   2.624   0.187   1.449
 3184WAT     H210095   2.542   0.208   1.588
 3185WAT      O10096   1.937   0.345   0.033
 3185WAT     H110097   1.845   0.317   0.004
 3185WAT     H210098   1.968   0.422  -0.023
 3186WAT      O10099   3.302   0.856   1.398
 3186WAT     H110100   3.245   0.908   1.335
 3186WAT     H210101   3.398   0.868   1.374
 3187WAT      O10102   1.934   0.166   0.318
 3187WAT     H110103   1.917   0.249   0.264
 3187WAT     H210104   2.024   0.129   0.296
 3188WAT      O10105   3.045   1.335   0.119
 3188WAT     H110106   2.946   1.324   0.121
 3188WAT     H210107   3.079   1.350   0.212
 3189WAT      O10108   2.475   0.842   1.431
 3189WAT     H110109   2.531   0.923   1.414
 3189WAT     H210110   2.534   0.762   1.434
 3190WAT      O10111   3.355   1.767   0.959
 3190WAT     H110112   3.388   1.831   0.890
 3190WAT     H210113   3.421   1.761   1.034
 3191WAT      O10114   2.578   0.565   1.708
 3191WAT     H110115   2.597   0.630   1.782
 3191WAT     H210116   2.638   0.485   1.717
 3192WAT      O10117   3.312   1.220   1.633
 3192WAT     H110118   3.303   1.210   1.732
 3192WAT     H210119   3.408   1.213   1.607
 3193WAT      O10120   2.252   1.741   1.560
 3193WAT     H110121   2.161   1.782   1.558
 3193WAT     H210122   2.245   1.647   1.592
 3194WAT      O10123   3.536   0.883   1.254
 3194WAT     H110124   3.509   0.794   1.217
 3194WAT     H210125   3.537   0.951   1.181
 3195WAT      O10126   3.087   0.325   0.449
 3195WAT     H110127   3.152   0.251   0.438
 3195WAT     H210128   3.107   0.375   0.533
 3196WAT      O10129   2.456   0.745   0.652
 3196WAT     H110130   2.506   0.830   0.633
 3196WAT     H210131   2.368   0.747   0.604
 3197WAT      O10132   3.639   0.342   1.642
 3197WAT     H110133   3.622   0.373   1.548
 3197WAT     H210134   3.555   0.305   1.680
 3198WAT      O10135   3.592   0.934   1.517
 3198WAT     H110136   3.630   1.025   1.532
 3198WAT     H210137   3.584   0.917   1.418
 3199WAT      O10138   2.721   1.374   0.016
 3199WAT     H110139   2.675   1.389   0.104
 3199WAT     H210140   2.765   1.459  -0.014
 3200WAT      O10141   2.523   1.790   0.953
 3200WAT     H110142   2.477   1.878   0.940
 3200WAT     H210143   2.622   1.802   0.946
 3201WAT      O10144   2.721   0.956   0.861
 3201WAT     H110145   2.775   0.887   0.909
 3201WAT     H210146   2.689   1.025   0.927
 3202WAT      O10147   2.945   0.984   0.087
 3202WAT     H110148   2.922   1.037   0.005
 3202WAT     H210149   3.026   0.928   0.068
 3203WAT      O10150   3.723   1.569   0.851
 3203WAT     H110151   3.652   1.557   0.781
 3203WAT     H210152   3.724   1.490   0.911
 3204WAT      O10153   2.083   1.314   1.844
 3204WAT     H110154   2.018   1.241   1.823
 3204WAT     H210155   2.087   1.328   1.942
 3205WAT      O10156   1.941   1.240   0.653
 3205WAT     H110157   1.940   1.193   0.741
 3205WAT     H210158   2.023   1.212   0.602
 3206WAT      O10159   2.534   1.391   1.624
 3206WAT     H110160   2.456   1.341   1.662
 3206WAT     H210161   2.531   1.486   1.655
 3207WAT      O10162   3.686   0.192   1.227
 3207WAT     H110163   3.682   0.102   1.271
 3207WAT     H210164   3.689   0.181   1.128
 3208WAT      O10165   2.290   0.424   0.520
 3208WAT     H110166   2.320   0.352   0.458
 3208WAT     H210167   2.251   0.384   0.603
 3209WAT      O10168   3.567   1.487   1.104
 3209WAT     H110169   3.474   1.462   1.077
 3209WAT     H210170   3.593   1.437   1.186
 3210WAT      O10171   2.179   0.547   1.280
 3210WAT     H110172   2.217   0.488   1.352
 3210WAT     H210173   2.219   0.521   1.192
 3211WAT      O10174   2.674   1.586   0.687
 3211WAT     H110175   2.706   1.596   0.593
 3211WAT     H210176   2.595   1.524   0.689
 3212WAT      O10177   3.286   0.214   1.112
 3212WAT     H110178   3.338   0.149   1.167
 3212WAT     H210179   3.237   0.277   1.173
 3213WAT      O10180   2.863   0.034   1.154
 3213WAT     H110181   2.800  -0.038   1.123
 3213WAT     H210182   2.956  -0.002   1.154
 3214WAT      O10183   2.632   1.330   0.301
 3214WAT     H110184   2.586   1.243   0.318
 3214WAT     H210185   2.723   1.327   0.342
 3215WAT      O10186   2.480   1.567   1.284
 3215WAT     H110187   2.475   1.649   1.341
 3215WAT     H210188   2.569   1.564   1.239
 3216WAT      O10189   3.214   0.052   0.168
 3216WAT     H110190   3.249   0.011   0.084
 3216WAT     H210191   3.124   0.014   0.188
 3217WAT      O10192   3.162   0.453   0.691
 3217WAT     H110193   3.103   0.533   0.695
 3217WAT     H210194   3.177   0.418   0.784
 3218WAT      O10195   3.455   0.221   0.882
 3218WAT     H110196   3.371   0.220   0.936
 3218WAT     H210197   3.457   0.304   0.826
 3219WAT      O10198   1.901   1.077   0.300
 3219WAT     H110199   2.000   1.066   0.291
 3219WAT     H210200   1.861   0.991   0.332
 3220WAT      O10201   2.737   1.646   0.337
 3220WAT     H110202   2.660   1.611   0.283
 3220WAT     H210203   2.705   1.717   0.399
 3221WAT      O10204   2.092   0.628   1.975
 3221WAT     H110205   1.999   0.626   2.012
 3221WAT     H210206   2.093   0.589   1.883
 3222WAT      O10207   2.087   0.275   2.858
 3222WAT     H110208   2.122   0.258   2.950
 3222WAT     H210209   1.999   0.230   2.846
 3223WAT      O10210   1.881   0.368   2.509
 3223WAT     H110211   1.799   0.411   2.548
 3223WAT     H210212   1.853   0.295   2.446
 3224WAT      O10213   2.431   1.275   3.027
 3224WAT     H110214   2.338   1.268   2.990
 3224WAT     H210215   2.442   1.364   3.071
 3225WAT      O10216   3.417   1.511   2.565
 3225WAT     H110217   3.360   1.495   2.646
 3225WAT     H210218   3.358   1.521   2.485
 3226WAT      O10219   2.997   0.703   2.579
 3226WAT     H110220   3.054   0.781   2.554
 3226WAT     H210221   2.937   0.729   2.655
 3227WAT      O10222   3.617   0.607   2.093
 3227WAT     H110223   3.605   0.594   1.994
 3227WAT     H210224   3.587   0.526   2.142
 3228WAT      O10225   2.630   1.144   2.885
 3228WAT     H110226   2.552   1.161   2.945
 3228WAT     H210227   2.664   1.231   2.849
 3229WAT      O10228   2.712   0.798   3.685
 3229WAT     H110229   2.708   0.874   3.750
 3229WAT     H210230   2.734   0.834   3.594
 3230WAT      O10231   2.547   1.012   2.527
 3230WAT     H110232   2.616   0.996   2.597
 3230WAT     H210233   2.474   1.069   2.565
 3231WAT      O10234   2.548   1.161   3.665
 3231WAT     H110235   2.608   1.240   3.679
 3231WAT     H210236   2.462   1.192   3.624
 3232WAT      O10237   2.197   1.435   2.923
 3232WAT     H110238   2.119   1.404   2.870
 3232WAT     H210239   2.255   1.493   2.866
 3233WAT      O10240   3.322   1.505   3.201
 3233WAT     H110241   3.346   1.599   3.227
 3233WAT     H210242   3.306   1.451   3.283
 3234WAT      O10243   2.300   0.392   3.361
 3234WAT     H110244   2.382   0.336   3.370
 3234WAT     H210245   2.219   0.334   3.365
 3235WAT      O10246   3.465   0.447   2.599
 3235WAT     H110247   3.391   0.493   2.549
 3235WAT     H210248   3.516   0.515   2.652
 3236WAT      O10249   2.093   1.713   2.345
 3236WAT     H110250   2.127   1.790   2.399
 3236WAT     H210251   2.137   1.713   2.255
 3237WAT      O10252   2.989   1.341   3.552
 3237WAT     H110253   3.036   1.341   3.640
 3237WAT     H210254   2.941   1.254   3.541
 3238WAT      O10255   2.092   1.434   2.400
 3238WAT     H110256   2.066   1.530   2.400
 3238WAT     H210257   2.021   1.380   2.445
 3239WAT      O10258   2.102   1.091   2.748
 3239WAT     H110259   2.116   1.007   2.800
 3239WAT     H210260   2.047   1.155   2.803
 3240WAT      O10261   2.482   1.786   3.301
 3240WAT     H110262   2.390   1.769   3.336
 3240WAT     H210263   2.510   1.878   3.327
 3241WAT      O10264   2.468   0.964   1.985
 3241WAT     H110265   2.475   1.048   1.931
 3241WAT     H210266   2.514   0.977   2.073
 3242WAT      O10267   3.456   0.114   3.342
 3242WAT     H110268   3.438   0.181   3.270
 3242WAT     H210269   3.453   0.160   3.431
 3243WAT      O10270   1.984   0.643   2.425
 3243WAT     H110271   1.939   0.555   2.442
 3243WAT     H210272   1.983   0.697   2.509
 3244WAT      O10273   3.704   1.767   2.221
 3244WAT     H110274   3.758   1.738   2.301
 3244WAT     H210275   3.734   1.857   2.192
 3245WAT      O10276   1.889   1.596   1.979
 3245WAT     H110277   1.870   1.500   2.000
 3245WAT     H210278   1.856   1.654   2.054
 3246WAT      O10279   3.551   0.922   2.474
 3246WAT     H110280   3.646   0.893   2.482
 3246WAT     H210281   3.543   0.987   2.399
 3247WAT      O10282   3.503   1.108   2.294
 3247WAT     H110283   3.589   1.110   2.242
 3247WAT     H210284   3.517   1.155   2.382
 3248WAT      O10285   1.975   0.737   3.459
 3248WAT     H110286   2.063   0.724   3.504
 3248WAT     H210287   1.962   0.834   3.437
 3249WAT      O10288   2.475   1.365   2.588
 3249WAT     H110289   2.426   1.278   2.597
 3249WAT     H210290   2.452   1.408   2.501
 3250WAT      O10291   3.155   1.228   3.285
 3250WAT     H110292   3.192   1.155   3.227
 3250WAT     H210293   3.207   1.233   3.370
 3251WAT      O10294   2.671   0.004   2.364
 3251WAT     H110295   2.711   0.095   2.355
 3251WAT     H210296   2.571   0.012   2.370
 3252WAT      O10297   2.059   0.976   3.126
 3252WAT     H110298   2.148   0.931   3.112
 3252WAT     H210299   1.986   0.911   3.107
 3253WAT      O10300   3.387   0.999   2.052
 3253WAT     H110301   3.324   0.923   2.065
 3253WAT     H210302   3.435   1.017   2.138
 3254WAT      O10303   3.049   1.792   3.478
 3254WAT     H110304   3.073   1.852   3.402
 3254WAT     H210305   3.056   1.697   3.448
 3255WAT      O10306   2.179   0.251   3.663
 3255WAT     H110307   2.250   0.322   3.669
 3255WAT     H210308   2.091   0.290   3.691
 3256WAT      O10309   3.328   1.417   2.815
 3256WAT     H110310   3.269   1.423   2.895
 3256WAT     H210311   3.313   1.329   2.769
 3257WAT      O10312   3.529   1.714   2.434
 3257WAT     H110313   3.488   1.691   2.346
 3257WAT     H210314   3.511   1.640   2.499
 3258WAT      O10315   2.460   0.729   2.132
 3258WAT     H110316   2.484   0.798   2.064
 3258WAT     H210317   2.382   0.762   2.186
 3259WAT      O10318   3.143   0.345   2.806
 3259WAT     H110319   3.057   0.295   2.793
 3259WAT     H210320   3.205   0.291   2.862
 3260WAT      O10321   3.438   1.662   2.169
 3260WAT     H110322   3.527   1.708   2.172
 3260WAT     H210323   3.417   1.638   2.074
 3261WAT      O10324   2.669   0.605   3.327
 3261WAT     H110325   2.622   0.602   3.416
 3261WAT     H210326   2.618   0.550   3.261
 3262WAT      O10327   3.256   0.469   3.536
 3262WAT     H110328   3.236   0.512   3.624
 3262WAT     H210329   3.334   0.407   3.545
 3263WAT      O10330   2.835   0.890   3.434
 3263WAT     H110331   2.881   0.806   3.405
 3263WAT     H210332   2.779   0.924   3.359
 3264WAT      O10333   2.853   0.410   3.104
 3264WAT     H110334   2.776   0.444   3.158
 3264WAT     H210335   2.819   0.359   3.025
 3265WAT      O10336   2.903   0.701   2.291
 3265WAT     H110337   2.929   0.697   2.387
 3265WAT     H210338   2.818   0.650   2.277
 3266WAT      O10339   1.938   0.811   2.651
 3266WAT     H110340   2.037   0.799   2.660
 3266WAT     H210341   1.914   0.906   2.672
 3267WAT      O10342   1.992   1.821   3.433
 3267WAT     H110343   1.982   1.806   3.532
 3267WAT     H210344   1.906   1.857   3.397
 3268WAT      O10345   2.727   0.348   2.057
 3268WAT     H110346   2.786   0.411   2.008
 3268WAT     H210347   2.746   0.254   2.028
 3269WAT      O10348   3.581   0.585   3.693
 3269WAT     H110349   3.555   0.674   3.657
 3269WAT     H210350   3.579   0.517   3.620
 3270WAT      O10351   3.224   1.144   2.407
 3270WAT     H110352   3.307   1.115   2.359
 3270WAT     H210353   3.175   1.211   2.351
 3271WAT      O10354   2.412   0.196   2.747
 3271WAT     H110355   2.407   0.191   2.847
 3271WAT     H210356   2.414   0.292   2.718
 3272WAT      O10357   2.870   1.456   2.339
 3272WAT     H110358   2.824   1.528   2.287
 3272WAT     H210359   2.866   1.476   2.437
 3273WAT      O10360   2.213   1.801   2.715
 3273WAT     H110361   2.263   1.715   2.721
 3273WAT     H210362   2.278   1.878   2.712
 3274WAT      O10363   3.657   1.066   2.735
 3274WAT     H110364   3.595   1.051   2.659
 3274WAT     H210365   3.605   1.077   2.820
 3275WAT      O10366   3.089   1.550   3.368
 3275WAT     H110367   3.095   1.473   3.432
 3275WAT     H210368   3.037   1.524   3.288
 3276WAT      O10369   2.183   0.943   2.104
 3276WAT     H110370   2.265   0.982   2.062
 3276WAT     H210371   2.156   0.861   2.055
 3277WAT      O10372   3.320   0.735   2.590
 3277WAT     H110373   3.315   0.670   2.665
 3277WAT     H210374   3.400   0.794   2.603
 3278WAT      O10375   2.323   1.266   3.589
 3278WAT     H110376   2.273   1.267   3.503
 3278WAT     H210377   2.260   1.248   3.665
 3279WAT      O10378   2.973   1.776   2.099
 3279WAT     H110379   2.913   1.714   2.149
 3279WAT     H210380   3.004   1.732   2.014
 3280WAT      O10381   2.064   0.285   3.360
 3280WAT     H110382   1.984   0.345   3.347
 3280WAT     H210383   2.054   0.236   3.446
 3281WAT      O10384   3.494   1.377   1.943
 3281WAT     H110385   3.462   1.471   1.933
 3281WAT     H210386   3.418   1.314   1.931
 3282WAT      O10387   2.326   1.743   2.185
 3282WAT     H110388   2.359   1.782   2.271
 3282WAT     H210389   2.402   1.736   2.120
 3283WAT      O10390   3.262   0.107   2.288
 3283WAT     H110391   3.238   0.070   2.198
 3283WAT     H210392   3.361   0.123   2.292
 3284WAT      O10393   2.111   1.785   3.103
 3284WAT     H110394   2.168   1.720   3.153
 3284WAT     H210395   2.095   1.752   3.010
 3285WAT      O10396   2.802   1.698   2.766
 3285WAT     H110397   2.882   1.641   2.787
 3285WAT     H210398   2.753   1.658   2.689
 3286WAT      O10399   2.244   0.700   2.342
 3286WAT     H110400   2.289   0.610   2.339
 3286WAT     H210401   2.150   0.689   2.375
 3287WAT      O10402   3.409   0.222   3.591
 3287WAT     H110403   3.404   0.259   3.683
 3287WAT     H210404   3.337   0.153   3.579
 3288WAT      O10405   2.476   0.122   1.979
 3288WAT     H110406   2.574   0.100   1.986
 3288WAT     H210407   2.445   0.105   1.886
 3289WAT      O10408   2.643   0.264   3.611
 3289WAT     H110409   2.710   0.203   3.654
 3289WAT     H210410   2.570   0.283   3.676
 3290WAT      O10411   2.750   1.514   3.057
 3290WAT     H110412   2.727   1.489   2.963
 3290WAT     H210413   2.811   1.445   3.096
 3291WAT      O10414   3.213   0.590   3.295
 3291WAT     H110415   3.241   0.547   3.380
 3291WAT     H210416   3.238   0.686   3.296
 3292WAT      O10417   2.665   1.402   2.786
 3292WAT     H110418   2.755   1.416   2.744
 3292WAT     H210419   2.594   1.404   2.715
 3293WAT      O10420   2.784   0.503   2.761
 3293WAT     H110421   2.759   0.494   2.665
 3293WAT     H210422   2.832   0.421   2.792
 3294WAT      O10423   2.401   0.064   2.374
 3294WAT     H110424   2.320   0.065   2.432
 3294WAT     H210425   2.404   0.147   2.319
 3295WAT      O10426   3.296   1.188   1.903
 3295WAT     H110427   3.328   1.112   1.960
 3295WAT     H210428   3.204   1.215   1.933
 3296WAT      O10429   2.159   0.035   2.033
 3296WAT     H110430   2.208   0.119   2.012
 3296WAT     H210431   2.221  -0.030   2.078
 3297WAT      O10432   2.797   0.236   2.342
 3297WAT     H110433   2.749   0.277   2.264
 3297WAT     H210434   2.896   0.234   2.323
 3298WAT      O10435   2.938   0.683   3.326
 3298WAT     H110436   2.858   0.622   3.329
 3298WAT     H210437   3.019   0.630   3.302
 3299WAT      O10438   3.089   1.570   2.655
 3299WAT     H110439   3.110   1.644   2.590
 3299WAT     H210440   3.157   1.570   2.728
 3300WAT      O10441   2.321   1.152   2.603
 3300WAT     H110442   2.250   1.125   2.668
 3300WAT     H210443   2.295   1.124   2.510
 3301WAT      O10444   3.133   1.797   2.453
 3301WAT     H110445   3.177   1.861   2.389
 3301WAT     H210446   3.083   1.849   2.523
 3302WAT      O10447   2.894   0.549   1.878
 3302WAT     H110448   2.853   0.631   1.839
 3302WAT     H210449   2.958   0.575   1.951
 3303WAT      O10450   1.940   0.556   3.248
 3303WAT     H110451   2.032   0.555   3.207
 3303WAT     H210452   1.934   0.630   3.315
 3304WAT      O10453   2.423   0.222   3.009
 3304WAT     H110454   2.461   0.138   3.046
 3304WAT     H210455   2.335   0.241   3.053
 3305WAT      O10456   2.728   0.454   2.504
 3305WAT     H110457   2.696   0.526   2.442
 3305WAT     H210458   2.752   0.373   2.451
 3306WAT      O10459   2.879   0.039   2.615
 3306WAT     H110460   2.807   0.044   2.546
 3306WAT     H210461   2.855  -0.030   2.684
 3307WAT      O10462   3.291   1.173   2.729
 3307WAT     H110463   3.236   1.089   2.722
 3307WAT     H210464   3.317   1.202   2.637
 3308WAT      O10465   3.328   0.590   2.854
 3308WAT     H110466   3.298   0.495   2.861
 3308WAT     H210467   3.401   0.606   2.920
 3309WAT      O10468   3.719   0.833   2.239
 3309WAT     H110469   3.761   0.769   2.303
 3309WAT     H210470   3.681   0.782   2.161
 3310WAT      O10471   2.350   1.385   2.036
 3310WAT     H110472   2.263   1.370   2.083
 3310WAT     H210473   2.333   1.411   1.941
 3311WAT      O10474   3.526   1.280   2.519
 3311WAT     H110475   3.625   1.288   2.533
 3311WAT     H210476   3.481   1.364   2.550
 3312WAT      O10477   3.252   0.575   1.940
 3312WAT     H110478   3.198   0.554   2.021
 3312WAT     H210479   3.343   0.534   1.949
 3313WAT      O10480   2.389   0.256   2.190
 3313WAT     H110481   2.416   0.197   2.115
 3313WAT     H210482   2.389   0.351   2.159
 3314WAT      O10483   3.616   1.223   3.450
 3314WAT     H110484   3.707   1.184   3.437
 3314WAT     H210485   3.624   1.319   3.474
 3315WAT      O10486   2.926   1.347   3.202
 3315WAT     H110487   2.846   1.324   3.257
 3315WAT     H210488   3.009   1.321   3.251
 3316WAT      O10489   3.454   1.629   3.487
 3316WAT     H110490   3.481   1.663   3.397
 3316WAT     H210491   3.533   1.591   3.533
 3317WAT      O10492   2.973   1.195   2.962
 3317WAT     H110493   2.933   1.239   3.043
 3317WAT     H210494   2.932   1.232   2.879
 3318WAT      O10495   3.500   1.099   2.941
 3318WAT     H110496   3.505   1.180   3.000
 3318WAT     H210497   3.414   1.101   2.890
 3319WAT      O10498   2.777   0.089   3.264
 3319WAT     H110499   2.802   0.069   3.169
 3319WAT     H210500   2.849   0.145   3.306
 3320WAT      O10501   2.842   1.116   3.581
 3320WAT     H110502   2.743   1.122   3.591
 3320WAT     H210503   2.865   1.036   3.525
 3321WAT      O10504   2.567   1.050   2.230
 3321WAT     H110505   2.553   1.057   2.329
 3321WAT     H210506   2.651   0.999   2.212
 3322WAT      O10507   2.272   0.813   3.113
 3322WAT     H110508   2.358   0.825   3.163
 3322WAT     H210509   2.230   0.726   3.140
 3323WAT      O10510   3.136   0.386   3.124
 3323WAT     H110511   3.157   0.460   3.188
 3323WAT     H210512   3.047   0.403   3.081
 3324WAT      O10513   1.926   1.564   3.193
 3324WAT     H110514   1.880   1.646   3.159
 3324WAT     H210515   2.024   1.583   3.202
 3325WAT      O10516   2.229   1.100   2.363
 3325WAT     H110517   2.222   1.183   2.307
 3325WAT     H210518   2.233   1.020   2.303
 3326WAT      O10519   2.428   0.537   2.727
 3326WAT     H110520   2.440   0.603   2.653
 3326WAT     H210521   2.474   0.571   2.810
 3327WAT      O10522   3.114   1.348   2.250
 3327WAT     H110523   3.164   1.425   2.290
 3327WAT     H210524   3.019   1.350   2.282
 3328WAT      O10525   3.134   1.445   3.004
 3328WAT     H110526   3.181   1.458   3.091
 3328WAT     H210527   3.068   1.371   3.013
 3329WAT      O10528   3.444   0.639   2.334
 3329WAT     H110529   3.413   0.700   2.407
 3329WAT     H210530   3.494   0.691   2.265
 3330WAT      O10531   2.216   1.510   3.191
 3330WAT     H110532   2.195   1.466   3.104
 3330WAT     H210533   2.313   1.536   3.194
 3331WAT      O10534   2.264   0.751   3.460
 3331WAT     H110535   2.332   0.806   3.413
 3331WAT     H210536   2.304   0.663   3.487
 3332WAT      O10537   3.449   0.779   3.532
 3332WAT     H110538   3.357   0.817   3.527
 3332WAT     H210539   3.509   0.826   3.467
 3333WAT      O10540   2.875   0.105   3.632
 3333WAT     H110541   2.881   0.190   3.580
 3333WAT     H210542   2.907   0.029   3.575
 3334WAT      O10543   2.366   0.050   3.602
 3334WAT     H110544   2.324  -0.007   3.532
 3334WAT     H210545   2.300   0.119   3.634
 3335WAT      O10546   2.435   0.870   2.891
 3335WAT     H110547   2.479   0.959   2.882
 3335WAT     H210548   2.372   0.870   2.968
 3336WAT      O10549   3.222   0.862   2.907
 3336WAT     H110550   3.147   0.862   2.841
 3336WAT     H210551   3.259   0.770   2.916
 3337WAT      O10552   3.071   0.525   2.137
 3337WAT     H110553   3.084   0.441   2.191
 3337WAT     H210554   3.042   0.599   2.197
 3338WAT      O10555   2.169   0.213   3.093
 3338WAT     H110556   2.146   0.250   3.183
 3338WAT     H210557   2.139   0.118   3.087
 3339WAT      O10558   1.899   1.310   3.144
 3339WAT     H110559   1.952   1.261   3.212
 3339WAT     H210560   1.921   1.408   3.149
 3340WAT      O10561   2.594   0.634   2.926
 3340WAT     H110562   2.653   0.608   2.850
 3340WAT     H210563   2.566   0.730   2.915
 3341WAT      O10564   3.590   0.935   3.716
 3341WAT     H110565   3.544   0.928   3.627
 3341WAT     H210566   3.528   0.979   3.782
 3342WAT      O10567   2.169   0.063   2.480
 3342WAT     H110568   2.158   0.157   2.513
 3342WAT     H210569   2.164   0.000   2.557
 3343WAT      O10570   3.484   0.367   2.236
 3343WAT     H110571   3.486   0.291   2.300
 3343WAT     H210572   3.436   0.444   2.276
 3344WAT      O10573   2.885   0.766   2.828
 3344WAT     H110574   2.900   0.787   2.924
 3344WAT     H210575   2.855   0.671   2.819
 3345WAT      O10576   2.842   1.573   3.562
 3345WAT     H110577   2.822   1.617   3.474
 3345WAT     H210578   2.881   1.482   3.546
 3346WAT      O10579   3.721   1.518   3.467
 3346WAT     H110580   3.735   1.545   3.372
 3346WAT     H210581   3.804   1.540   3.520
 3347WAT      O10582   2.212   0.898   3.666
 3347WAT     H110583   2.288   0.942   3.714
 3347WAT     H210584   2.247   0.851   3.584
 3348WAT      O10585   3.402   0.274   1.987
 3348WAT     H110586   3.341   0.199   2.010
 3348WAT     H210587   3.424   0.326   2.070
 3349WAT      O10588   3.165   0.838   1.904
 3349WAT     H110589   3.199   0.745   1.919
 3349WAT     H210590   3.183   0.865   1.809
 3350WAT      O10591   2.930   1.333   2.711
 3350WAT     H110592   2.937   1.249   2.656
 3350WAT     H210593   2.992   1.402   2.675
 3351WAT      O10594   2.181   0.810   2.811
 3351WAT     H110595   2.274   0.846   2.816
 3351WAT     H210596   2.175   0.725   2.863
 3352WAT      O10597   2.201   0.509   2.868
 3352WAT     H110598   2.149   0.426   2.851
 3352WAT     H210599   2.278   0.514   2.804
 3353WAT      O10600   3.000   0.380   3.540
 3353WAT     H110601   2.955   0.443   3.604
 3353WAT     H210602   3.093   0.411   3.523
 3354WAT      O10603   3.022   0.207   3.339
 3354WAT     H110604   3.022   0.271   3.416
 3354WAT     H210605   3.050   0.255   3.256
 3355WAT      O10606   1.870   1.326   2.062
 3355WAT     H110607   1.777   1.347   2.031
 3355WAT     H210608   1.880   1.227   2.075
 3356WAT      O10609   1.950   1.801   2.789
 3356WAT     H110610   1.908   1.715   2.762
 3356WAT     H210611   2.044   1.804   2.755
 3357WAT      O10612   2.366   1.568   2.772
 3357WAT     H110613   2.432   1.642   2.781
 3357WAT     H210614   2.410   1.489   2.730
 3358WAT      O10615   2.864   0.796   3.100
 3358WAT     H110616   2.905   0.764   3.186
 3358WAT     H210617   2.768   0.769   3.097
 3359WAT      O10618   1.902   0.544   2.976
 3359WAT     H110619   1.987   0.511   2.935
 3359WAT     H210620   1.915   0.559   3.074
 3360WAT      O10621   2.051   0.520   3.584
 3360WAT     H110622   2.110   0.480   3.514
 3360WAT     H210623   1.993   0.591   3.543
 3361WAT      O10624   3.231   0.950   3.522
 3361WAT     H110625   3.270   1.039   3.542
 3361WAT     H210626   3.241   0.930   3.425
 3362WAT      O10627   2.677   0.572   2.187
 3362WAT     H110628   2.684   0.483   2.141
 3362WAT     H210629   2.583   0.606   2.179
 3363WAT      O10630   3.519   0.604   3.068
 3363WAT     H110631   3.481   0.535   3.130
 3363WAT     H210632   3.601   0.568   3.024
 3364WAT      O10633   2.114   1.564   3.606
 3364WAT     H110634   2.084   1.621   3.682
 3364WAT     H210635   2.107   1.467   3.632
 3365WAT      O10636   2.533   0.464   3.131
 3365WAT     H110637   2.499   0.375   3.101
 3365WAT     H210638   2.559   0.518   3.051
 3366WAT      O10639   2.792   1.678   3.327
 3366WAT     H110640   2.768   1.660   3.232
 3366WAT     H210641   2.822   1.772   3.337
 3367WAT      O10642   2.335   0.500   2.053
 3367WAT     H110643   2.396   0.580   2.057
 3367WAT     H210644   2.240   0.531   2.060
 3368WAT      O10645   2.021   1.137   3.328
 3368WAT     H110646   2.043   1.076   3.404
 3368WAT     H210647   2.031   1.088   3.242
 3369WAT      O10648   3.209   1.059   3.096
 3369WAT     H110649   3.233   0.996   3.022
 3369WAT     H210650   3.119   1.099   3.078
 3370WAT      O10651   3.164   0.855   2.171
 3370WAT     H110652   3.078   0.824   2.213
 3370WAT     H210653   3.160   0.841   2.072
 3371WAT      O10654   3.621   1.747   3.016
 3371WAT     H110655   3.682   1.777   2.943
 3371WAT     H210656   3.583   1.658   2.994
 3372WAT      O10657   3.114   1.731   2.990
 3372WAT     H110658   3.198   1.736   2.936
 3372WAT     H210659   3.091   1.635   3.008
 3373WAT      O10660   1.945   1.258   2.884
 3373WAT     H110661   1.940   1.257   2.984
 3373WAT     H210662   1.862   1.217   2.846
 3374WAT      O10663   2.550   1.662   3.578
 3374WAT     H110664   2.494   1.743   3.587
 3374WAT     H210665   2.602   1.666   3.492
 3375WAT      O10666   3.588   0.135   2.385
 3375WAT     H110667   3.661   0.118   2.318
 3375WAT     H210668   3.557   0.048   2.423
 3376WAT      O10669   3.250   1.573   2.339
 3376WAT     H110670   3.317   1.585   2.265
 3376WAT     H210671   3.210   1.662   2.362
 3377WAT      O10672   1.992   1.794   3.713
 3377WAT     H110673   1.951   1.720   3.766
 3377WAT     H210674   2.056   1.845   3.771
 3378WAT      O10675   3.142   0.927   2.534
 3378WAT     H110676   3.202   0.846   2.536
 3378WAT     H210677   3.182   0.996   2.474
 3379WAT      O10678   2.692   1.273   3.284
 3379WAT     H110679   2.687   1.306   3.379
 3379WAT     H210680   2.606   1.292   3.238
 3380WAT      O10681   2.534   1.616   2.016
 3380WAT     H110682   2.543   1.626   1.917
 3380WAT     H210683   2.494   1.527   2.037
 3381WAT      O10684   3.512   1.720   3.256
 3381WAT     H110685   3.565   1.730   3.172
 3381WAT     H210686   3.485   1.810   3.290
 3382WAT      O10687   3.703   0.175   2.825
 3382WAT     H110688   3.742   0.090   2.789
 3382WAT     H210689   3.605   0.177   2.806
 3383WAT      O10690   2.125   0.326   2.582
 3383WAT     H110691   2.046   0.377   2.548
 3383WAT     H210692   2.116   0.311   2.680
 3384WAT      O10693   3.056   1.612   1.893
 3384WAT     H110694   3.062   1.519   1.930
 3384WAT     H210695   2.997   1.612   1.813
 3385WAT      O10696   2.684   1.002   3.234
 3385WAT     H110697   2.724   1.001   3.142
 3385WAT     H210698   2.694   1.094   3.274
 3386WAT      O10699   2.778   0.910   2.153
 3386WAT     H110700   2.841   0.948   2.085
 3386WAT     H210701   2.818   0.827   2.192
 3387WAT      O10702   3.366   1.607   1.906
 3387WAT     H110703   3.274   1.644   1.913
 3387WAT     H210704   3.404   1.627   1.816
 3388WAT      O10705   2.234   1.288   3.352
 3388WAT     H110706   2.221   1.381   3.318
 3388WAT     H210707   2.150   1.236   3.339
 3389WAT      O10708   3.476   1.292   3.151
 3389WAT     H110709   3.536   1.295   3.231
 3389WAT     H210710   3.401   1.356   3.164
 3390WAT      O10711   2.901   1.098   2.558
 3390WAT     H110712   2.831   1.051   2.612
 3390WAT     H210713   2.960   1.030   2.515
 3391WAT      O10714   2.876   0.236   2.833
 3391WAT     H110715   2.868   0.200   2.740
 3391WAT     H210716   2.874   0.160   2.898
 3392WAT      O10717   2.452   1.487   2.353
 3392WAT     H110718   2.494   1.429   2.283
 3392WAT     H210719   2.408   1.566   2.309
 3393WAT      O10720   3.571   0.385   3.243
 3393WAT     H110721   3.644   0.454   3.247
 3393WAT     H210722   3.599   0.310   3.184
 3394WAT      O10723   2.117   1.348   2.152
 3394WAT     H110724   2.021   1.349   2.125
 3394WAT     H210725   2.129   1.401   2.236
 3395WAT      O10726   1.967   1.013   3.588
 3395WAT     H110727   1.890   0.980   3.642
 3395WAT     H210728   2.052   0.983   3.630
 3396WAT      O10729   2.534   0.203   3.351
 3396WAT     H110730   2.624   0.187   3.311
 3396WAT     H210731   2.542   0.208   3.450
 3397WAT      O10732   1.937   0.345   1.895
 3397WAT     H110733   1.845   0.317   1.866
 3397WAT     H210734   1.968   0.422   1.839
 3398WAT      O10735   3.302   0.856   3.260
 3398WAT     H110736   3.245   0.908   3.197
 3398WAT     H210737   3.398   0.868   3.236
 3399WAT      O10738   1.934   0.166   2.180
 3399WAT     H110739   1.917   0.249   2.126
 3399WAT     H210740   2.024   0.129   2.158
 3400WAT      O10741   3.045   1.335   1.981
 3400WAT     H110742   2.946   1.324   1.983
 3400WAT     H210743   3.079   1.350   2.074
 3401WAT      O10744   2.475   0.842   3.293
 3401WAT     H110745   2.531   0.923   3.276
 3401WAT     H210746   2.534   0.762   3.296
 3402WAT      O10747   3.355   1.767   2.821
 3402WAT     H110748   3.388   1.831   2.752
 3402WAT     H210749   3.421   1.761   2.896
 3403WAT      O10750   2.578   0.565   3.570
 3403WAT     H110751   2.597   0.630   3.644
 3403WAT     H210752   2.638   0.485   3.579
 3404WAT      O10753   3.312   1.220   3.495
 3404WAT     H110754   3.303   1.210   3.594
 3404WAT     H210755   3.408   1.213   3.469
 3405WAT      O10756   2.252   1.741   3.422
 3405WAT     H110757   2.161   1.782   3.420
 3405WAT     H210758   2.245   1.647   3.454
 3406WAT      O10759   3.536   0.883   3.116
 3406WAT     H110760   3.509   0.794   3.079
 3406WAT     H210761   3.537   0.951   3.043
 3407WAT      O10762   3.087   0.325   2.311
 3407WAT     H110763   3.152   0.251   2.300
 3407WAT     H210764   3.107   0.375   2.395
 3408WAT      O10765   2.456   0.745   2.514
 3408WAT     H110766   2.506   0.830   2.495
 3408WAT     H210767   2.368   0.747   2.466
 3409WAT      O10768   3.639   0.342   3.504
 3409WAT     H110769   3.622   0.373   3.410
 3409WAT     H210770   3.555   0.305   3.542
 3410WAT      O10771   3.592   0.934   3.379
 3410WAT     H110772   3.630   1.025   3.394
 3410WAT     H210773   3.584   0.917   3.280
 3411WAT      O10774   2.721   1.374   1.878
 3411WAT     H110775   2.675   1.389   1.966
 3411WAT     H210776   2.765   1.459   1.848
 3412WAT      O10777   2.523   1.790   2.815
 3412WAT     H110778   2.477   1.878   2.802
 3412WAT     H210779   2.622   1.802   2.808
 3413WAT      O10780   2.721   0.956   2.723
 3413WAT     H110781   2.775   0.887   2.771
 3413WAT     H210782   2.689   1.025   2.789
 3414WAT      O10783   2.945   0.984   1.949
 3414WAT     H110784   2.922   1.037   1.867
 3414WAT     H210785   3.026   0.928   1.930
 3415WAT      O10786   3.723   1.569   2.713
 3415WAT     H110787   3.652   1.557   2.643
 3415WAT     H210788   3.724   1.490   2.773
 3416WAT      O10789   2.083   1.314   3.706
 3416WAT     H110790   2.018   1.241   3.685
 3416WAT     H210791   2.087   1.328   3.804
 3417WAT      O10792   1.941   1.240   2.515
 3417WAT     H110793   1.940   1.193   2.603
 3417WAT     H210794   2.023   1.212   2.464
 3418WAT      O10795   2.534   1.391   3.486
 3418WAT     H110796   2.456   1.341   3.524
 3418WAT     H210797   2.531   1.486   3.517
 3419WAT      O10798   3.686   0.192   3.089
 3419WAT     H110799   3.682   0.102   3.133
 3419WAT     H210800   3.689   0.181   2.990
 3420WAT      O10801   2.290   0.424   2.382
 3420WAT     H110802   2.320   0.352   2.320
 3420WAT     H210803   2.251   0.384   2.465
 3421WAT      O10804   3.567   1.487   2.966
 3421WAT     H110805   3.474   1.462   2.939
 3421WAT     H210806   3.593   1.437   3.048
 3422WAT      O10807   2.179   0.547   3.142
 3422WAT     H110808   2.217   0.488   3.214
 3422WAT     H210809   2.219   0.521   3.054
 3423WAT      O10810   2.674   1.586   2.549
 3423WAT     H110811   2.706   1.596   2.455
 3423WAT     H210812   2.595   1.524   2.551
 3424WAT      O10813   3.286   0.214   2.974
 3424WAT     H110814   3.338   0.149   3.029
 3424WAT     H210815   3.237   0.277   3.035
 3425WAT      O10816   2.863   0.034   3.016
 3425WAT     H110817   2.800  -0.038   2.985
 3425WAT     H210818   2.956  -0.002   3.016
 3426WAT      O10819   2.632   1.330   2.163
 3426WAT     H110820   2.586   1.243   2.180
 3426WAT     H210821   2.723   1.327   2.204
 3427WAT      O10822   2.480   1.567   3.146
 3427WAT     H110823   2.475   1.649   3.203
 3427WAT     H210824   2.569   1.564   3.101
 3428WAT      O10825   3.214   0.052   2.030
 3428WAT     H110826   3.249   0.011   1.946
 3428WAT     H210827   3.124   0.014   2.050
 3429WAT      O10828   3.162   0.453   2.553
 3429WAT     H110829   3.103   0.533   2.557
 3429WAT     H210830   3.177   0.418   2.646
 3430WAT      O10831   3.455   0.221   2.744
 3430WAT     H110832   3.371   0.220   2.798
 3430WAT     H210833   3.457   0.304   2.688
 3431WAT      O10834   1.901   1.077   2.162
 3431WAT     H110835   2.000   1.066   2.153
 3431WAT     H210836   1.861   0.991   2.194
 3432WAT      O10837   2.737   1.646   2.199
 3432WAT     H110838   2.660   1.611   2.145
 3432WAT     H210839   2.705   1.717   2.261
 3433WAT      O10840   2.092   0.628   3.837
 3433WAT     H110841   1.999   0.626   3.874
 3433WAT     H210842   2.093   0.589   3.745
 3434WAT      O10843   2.087   0.275   4.720
 3434WAT     H110844   2.122   0.258   4.812
 3434WAT     H210845   1.999   0.230   4.708
 3435WAT      O10846   1.881   0.368   4.371
 3435WAT     H110847   1.799   0.411   4.410
 3435WAT     H210848   1.853   0.295   4.308
 3436WAT      O10849   2.431   1.275   4.889
 3436WAT     H110850   2.338   1.268   4.852
 3436WAT     H210851   2.442   1.364   4.933
 3437WAT      O10852   3.417   1.511   4.427
 3437WAT     H110853   3.360   1.495   4.508
 3437WAT     H210854   3.358   1.521   4.347
 3438WAT      O10855   2.997   0.703   4.441
 3438WAT     H110856   3.054   0.781   4.416
 3438WAT     H210857   2.937   0.729   4.517
 3439WAT      O10858   3.617   0.607   3.955
 3439WAT     H110859   3.605   0.594   3.856
 3439WAT     H210860   3.587   0.526   4.004
 3440WAT      O10861   2.630   1.144   4.747
 3440WAT     H110862   2.552   1.161   4.807
 3440WAT     H210863   2.664   1.231   4.711
 3441WAT      O10864   2.712   0.798   5.547
 3441WAT     H110865   2.708   0.874   5.612
 3441WAT     H210866   2.734   0.834   5.456
 3442WAT      O10867   2.547   1.012   4.389
 3442WAT     H110868   2.616   0.996   4.459
 3442WAT     H210869   2.474   1.069   4.427
 3443WAT      O10870   2.548   1.161   5.527
 3443WAT     H110871   2.608   1.240   5.541
 3443WAT     H210872   2.462   1.192   5.486
 3444WAT      O10873   2.197   1.435   4.785
 3444WAT     H110874   2.119   1.404   4.732
 3444WAT     H210875   2.255   1.493   4.728
 3445WAT      O10876   3.322   1.505   5.063
 3445WAT     H110877   3.346   1.599   5.089
 3445WAT     H210878   3.306   1.451   5.145
 3446WAT      O10879   2.300   0.392   5.223
 3446WAT     H110880   2.382   0.336   5.232
 3446WAT     H210881   2.219   0.334   5.227
 3447WAT      O10882   3.465   0.447   4.461
 3447WAT     H110883   3.391   0.493   4.411
 3447WAT     H210884   3.516   0.515   4.514
 3448WAT      O10885   2.093   1.713   4.207
 3448WAT     H110886   2.127   1.790   4.261
 3448WAT     H210887   2.137   1.713   4.117
 3449WAT      O10888   2.989   1.341   5.414
 3449WAT     H110889   3.036   1.341   5.502
 3449WAT     H210890   2.941   1.254   5.403
 3450WAT      O10891   2.092   1.434   4.262
 3450WAT     H110892   2.066   1.530   4.262
 3450WAT     H210893   2.021   1.380   4.307
 3451WAT      O10894   2.102   1.091   4.610
 3451WAT     H110895   2.116   1.007   4.662
 3451WAT     H210896   2.047   1.155   4.665
 3452WAT      O10897   2.482   1.786   5.163
 3452WAT     H110898   2.390   1.769   5.198
 3452WAT     H210899   2.510   1.878   5.189
 3453WAT      O10900   2.468   0.964   3.847
 3453WAT     H110901   2.475   1.048   3.793
 3453WAT     H210902   2.514   0.977   3.935
 3454WAT      O10903   3.456   0.114   5.204
 3454WAT     H110904   3.438   0.181   5.132
 3454WAT     H210905   3.453   0.160   5.293
 3455WAT      O10906   1.984   0.643   4.287
 3455WAT     H110907   1.939   0.555   4.304
 3455WAT     H210908   1.983   0.697   4.371
 3456WAT      O10909   3.704   1.767   4.083
 3456WAT     H110910   3.758   1.738   4.163
 3456WAT     H210911   3.734   1.857   4.054
 3457WAT      O10912   1.889   1.596   3.841
 3457WAT     H110913   1.870   1.500   3.862
 3457WAT     H210914   1.856   1.654   3.916
 3458WAT      O10915   3.551   0.922   4.336
 3458WAT     H110916   3.646   0.893   4.344
 3458WAT     H210917   3.543   0.987   4.261
 3459WAT      O10918   3.503   1.108   4.156
 3459WAT     H110919   3.589   1.110   4.104
 3459WAT     H210920   3.517   1.155   4.244
 3460WAT      O10921   1.975   0.737   5.321
 3460WAT     H110922   2.063   0.724   5.366
 3460WAT     H210923   1.962   0.834   5.299
 3461WAT      O10924   2.475   1.365   4.450
 3461WAT     H110925   2.426   1.278   4.459
 3461WAT     H210926   2.452   1.408   4.363
 3462WAT      O10927   3.155   1.228   5.147
 3462WAT     H110928   3.192   1.155   5.089
 3462WAT     H210929   3.207   1.233   5.232
 3463WAT      O10930   2.671   0.004   4.226
 3463WAT     H110931   2.711   0.095   4.217
 3463WAT     H210932   2.571   0.012   4.232
 3464WAT      O10933   2.059   0.976   4.988
 3464WAT     H110934   2.148   0.931   4.974
 3464WAT     H210935   1.986   0.911   4.969
 3465WAT      O10936   3.387   0.999   3.914
 3465WAT     H110937   3.324   0.923   3.927
 3465WAT     H210938   3.435   1.017   4.000
 3466WAT      O10939   3.049   1.792   5.340
 3466WAT     H110940   3.073   1.852   5.264
 3466WAT     H210941   3.056   1.697   5.310
 3467WAT      O10942   2.179   0.251   5.525
 3467WAT     H110943   2.250   0.322   5.531
 3467WAT     H210944   2.091   0.290   5.553
 3468WAT      O10945   3.328   1.417   4.677
 3468WAT     H110946   3.269   1.423   4.757
 3468WAT     H210947   3.313   1.329   4.631
 3469WAT      O10948   3.529   1.714   4.296
 3469WAT     H110949   3.488   1.691   4.208
 3469WAT     H210950   3.511   1.640   4.361
 3470WAT      O10951   2.460   0.729   3.994
 3470WAT     H110952   2.484   0.798   3.926
 3470WAT     H210953   2.382   0.762   4.048
 3471WAT      O10954   3.143   0.345   4.668
 3471WAT     H110955   3.057   0.295   4.655
 3471WAT     H210956   3.205   0.291   4.724
 3472WAT      O10957   3.438   1.662   4.031
 3472WAT     H110958   3.527   1.708   4.034
 3472WAT     H210959   3.417   1.638   3.936
 3473WAT      O10960   2.669   0.605   5.189
 3473WAT     H110961   2.622   0.602   5.278
 3473WAT     H210962   2.618   0.550   5.123
 3474WAT      O10963   3.256   0.469   5.398
 3474WAT     H110964   3.236   0.512   5.486
 3474WAT     H210965   3.334   0.407   5.407
 3475WAT      O10966   2.835   0.890   5.296
 3475WAT     H110967   2.881   0.806   5.267
 3475WAT     H210968   2.779   0.924   5.221
 3476WAT      O10969   2.853   0.410   4.966
 3476WAT     H110970   2.776   0.444   5.020
 3476WAT     H210971   2.819   0.359   4.887
 3477WAT      O10972   2.903   0.701   4.153
 3477WAT     H110973   2.929   0.697   4.249
 3477WAT     H210974   2.818   0.650   4.139
 3478WAT      O10975   1.938   0.811   4.513
 3478WAT     H110976   2.037   0.799   4.522
 3478WAT     H210977   1.914   0.906   4.534
 3479WAT      O10978   1.992   1.821   5.295
 3479WAT     H110979   1.982   1.806   5.394
 3479WAT     H210980   1.906   1.857   5.259
 3480WAT      O10981   2.727   0.348   3.919
 3480WAT     H110982   2.786   0.411   3.870
 3480WAT     H210983   2.746   0.254   3.890
 3481WAT      O10984   3.581   0.585   5.555
 3481WAT     H110985   3.555   0.674   5.519
 3481WAT     H210986   3.579   0.517   5.482
 3482WAT      O10987   3.224   1.144   4.269
 3482WAT     H110988   3.307   1.115   4.221
 3482WAT     H210989   3.175   1.211   4.213
 3483WAT      O10990   2.412   0.196   4.609
 3483WAT     H110991   2.407   0.191   4.709
 3483WAT     H210992   2.414   0.292   4.580
 3484WAT      O10993   2.870   1.456   4.201
 3484WAT     H110994   2.824   1.528   4.149
 3484WAT     H210995   2.866   1.476   4.299
 3485WAT      O10996   2.213   1.801   4.577
 3485WAT     H110997   2.263   1.715   4.583
 3485WAT     H210998   2.278   1.878   4.574
 3486WAT      O10999   3.657   1.066   4.597
 3486WAT     H111000   3.595   1.051   4.521
 3486WAT     H211001   3.605   1.077   4.682
 3487WAT      O11002   3.089   1.550   5.230
 3487WAT     H111003   3.095   1.473   5.294
 3487WAT     H211004   3.037   1.524   5.150
 3488WAT      O11005   2.183   0.943   3.966
 3488WAT     H111006   2.265   0.982   3.924
 3488WAT     H211007   2.156   0.861   3.917
 3489WAT      O11008   3.320   0.735   4.452
 3489WAT     H111009   3.315   0.670   4.527
 3489WAT     H211010   3.400   0.794   4.465
 3490WAT      O11011   2.323   1.266   5.451
 3490WAT     H111012   2.273   1.267   5.365
 3490WAT     H211013   2.260   1.248   5.527
 3491WAT      O11014   2.973   1.776   3.961
 3491WAT     H111015   2.913   1.714   4.011
 3491WAT     H211016   3.004   1.732   3.876
 3492WAT      O11017   2.064   0.285   5.222
 3492WAT     H111018   1.984   0.345   5.209
 3492WAT     H211019   2.054   0.236   5.308
 3493WAT      O11020   3.494   1.377   3.805
 3493WAT     H111021   3.462   1.471   3.795
 3493WAT     H211022   3.418   1.314   3.793
 3494WAT      O11023   2.326   1.743   4.047
 3494WAT     H111024   2.359   1.782   4.133
 3494WAT     H211025   2.402   1.736   3.982
 3495WAT      O11026   3.262   0.107   4.150
 3495WAT     H111027   3.238   0.070   4.060
 3495WAT     H211028   3.361   0.123   4.154
 3496WAT      O11029   2.111   1.785   4.965
 3496WAT     H111030   2.168   1.720   5.015
 3496WAT     H211031   2.095   1.752   4.872
 3497WAT      O11032   2.802   1.698   4.628
 3497WAT     H111033   2.882   1.641   4.649
 3497WAT     H211034   2.753   1.658   4.551
 3498WAT      O11035   2.244   0.700   4.204
 3498WAT     H111036   2.289   0.610   4.201
 3498WAT     H211037   2.150   0.689   4.237
 3499WAT      O11038   3.409   0.222   5.453
 3499WAT     H111039   3.404   0.259   5.545
 3499WAT     H211040   3.337   0.153   5.441
 3500WAT      O11041   2.476   0.122   3.841
 3500WAT     H111042   2.574   0.100   3.848
 3500WAT     H211043   2.445   0.105   3.748
 3501WAT      O11044   2.643   0.264   5.473
 3501WAT     H111045   2.710   0.203   5.516
 3501WAT     H211046   2.570   0.283   5.538
 3502WAT      O11047   2.750   1.514   4.919
 3502WAT     H111048   2.727   1.489   4.825
 3502WAT     H211049   2.811   1.445   4.958
 3503WAT      O11050   3.213   0.590   5.157
 3503WAT     H111051   3.241   0.547   5.242
 3503WAT     H211052   3.238   0.686   5.158
 3504WAT      O11053   2.665   1.402   4.648
 3504WAT     H111054   2.755   1.416   4.606
 3504WAT     H211055   2.594   1.404   4.577
 3505WAT      O11056   2.784   0.503   4.623
 3505WAT     H111057   2.759   0.494   4.527
 3505WAT     H211058   2.832   0.421   4.654
 3506WAT      O11059   2.401   0.064   4.236
 3506WAT     H111060   2.320   0.065   4.294
 3506WAT     H211061   2.404   0.147   4.181
 3507WAT      O11062   3.296   1.188   3.765
 3507WAT     H111063   3.328   1.112   3.822
 3507WAT     H211064   3.204   1.215   3.795
 3508WAT      O11065   2.159   0.035   3.895
 3508WAT     H111066   2.208   0.119   3.874
 3508WAT     H211067   2.221  -0.030   3.940
 3509WAT      O11068   2.797   0.236   4.204
 3509WAT     H111069   2.749   0.277   4.126
 3509WAT     H211070   2.896   0.234   4.185
 3510WAT      O11071   2.938   0.683   5.188
 3510WAT     H111072   2.858   0.622   5.191
 3510WAT     H211073   3.019   0.630   5.164
 3511WAT      O11074   3.089   1.570   4.517
 3511WAT     H111075   3.110   1.644   4.452
 3511WAT     H211076   3.157   1.570   4.590
 3512WAT      O11077   2.321   1.152   4.465
 3512WAT     H111078   2.250   1.125   4.530
 3512WAT     H211079   2.295   1.124   4.372
 3513WAT      O11080   3.133   1.797   4.315
 3513WAT     H111081   3.177   1.861   4.251
 3513WAT     H211082   3.083   1.849   4.385
 3514WAT      O11083   2.894   0.549   3.740
 3514WAT     H111084   2.853   0.631   3.701
 3514WAT     H211085   2.958   0.575   3.813
 3515WAT      O11086   1.940   0.556   5.110
 3515WAT     H111087   2.032   0.555   5.069
 3515WAT     H211088   1.934   0.630   5.177
 3516WAT      O11089   2.423   0.222   4.871
 3516WAT     H111090   2.461   0.138   4.908
 3516WAT     H211091   2.335   0.241   4.915
 3517WAT      O11092   2.728   0.454   4.366
 3517WAT     H111093   2.696   0.526   4.304
 3517WAT     H211094   2.752   0.373   4.313
 3518WAT      O11095   2.879   0.039   4.477
 3518WAT     H111096   2.807   0.044   4.408
 3518WAT     H211097   2.855  -0.030   4.546
 3519WAT      O11098   3.291   1.173   4.591
 3519WAT     H111099   3.236   1.089   4.584
 3519WAT     H211100   3.317   1.202   4.499
 3520WAT      O11101   3.328   0.590   4.716
 3520WAT     H111102   3.298   0.495   4.723
 3520WAT     H211103   3.401   0.606   4.782
 3521WAT      O11104   3.719   0.833   4.101
 3521WAT     H111105   3.761   0.769   4.165
 3521WAT     H211106   3.681   0.782   4.023
 3522WAT      O11107   2.350   1.385   3.898
 3522WAT     H111108   2.263   1.370   3.945
 3522WAT     H211109   2.333   1.411   3.803
 3523WAT      O11110   3.526   1.280   4.381
 3523WAT     H111111   3.625   1.288   4.395
 3523WAT     H211112   3.481   1.364   4.412
 3524WAT      O11113   3.252   0.575   3.802
 3524WAT     H111114   3.198   0.554   3.883
 3524WAT     H211115   3.343   0.534   3.811
 3525WAT      O11116   2.389   0.256   4.052
 3525WAT     H111117   2.416   0.197   3.977
 3525WAT     H211118   2.389   0.351   4.021
 3526WAT      O11119   3.616   1.223   5.312
 3526WAT     H111120   3.707   1.184   5.299
 3526WAT     H211121   3.624   1.319   5.336
 3527WAT      O11122   2.926   1.347   5.064
 3527WAT     H111123   2.846   1.324   5.119
 3527WAT     H211124   3.009   1.321   5.113
 3528WAT      O11125   3.454   1.629   5.349
 3528WAT     H111126   3.481   1.663   5.259
 3528WAT     H211127   3.533   1.591   5.395
 3529WAT      O11128   2.973   1.195   4.824
 3529WAT     H111129   2.933   1.239   4.905
 3529WAT     H211130   2.932   1.232   4.741
 3530WAT      O11131   3.500   1.099   4.803
 3530WAT     H111132   3.505   1.180   4.862
 3530WAT     H211133   3.414   1.101   4.752
 3531WAT      O11134   2.777   0.089   5.126
 3531WAT     H111135   2.802   0.069   5.031
 3531WAT     H211136   2.849   0.145   5.168
 3532WAT      O11137   2.842   1.116   5.443
 3532WAT     H111138   2.743   1.122   5.453
 3532WAT     H211139   2.865   1.036   5.387
 3533WAT      O11140   2.567   1.050   4.092
 3533WAT     H111141   2.553   1.057   4.191
 3533WAT     H211142   2.651   0.999   4.074
 3534WAT      O11143   2.272   0.813   4.975
 3534WAT     H111144   2.358   0.825   5.025
 3534WAT     H211145   2.230   0.726   5.002
 3535WAT      O11146   3.136   0.386   4.986
 3535WAT     H111147   3.157   0.460   5.050
 3535WAT     H211148   3.047   0.403   4.943
 3536WAT      O11149   1.926   1.564   5.055
 3536WAT     H111150   1.880   1.646   5.021
 3536WAT     H211151   2.024   1.583   5.064
 3537WAT      O11152   2.229   1.100   4.225
 3537WAT     H111153   2.222   1.183   4.169
 3537WAT     H211154   2.233   1.020   4.165
 3538WAT      O11155   2.428   0.537   4.589
 3538WAT     H111156   2.440   0.603   4.515
 3538WAT     H211157   2.474   0.571   4.672
 3539WAT      O11158   3.114   1.348   4.112
 3539WAT     H111159   3.164   1.425   4.152
 3539WAT     H211160   3.019   1.350   4.144
 3540WAT      O11161   3.134   1.445   4.866
 3540WAT     H111162   3.181   1.458   4.953
 3540WAT     H211163   3.068   1.371   4.875
 3541WAT      O11164   3.444   0.639   4.196
 3541WAT     H111165   3.413   0.700   4.269
 3541WAT     H211166   3.494   0.691   4.127
 3542WAT      O11167   2.216   1.510   5.053
 3542WAT     H111168   2.195   1.466   4.966
 3542WAT     H211169   2.313   1.536   5.056
 3543WAT      O11170   2.264   0.751   5.322
 3543WAT     H111171   2.332   0.806   5.275
 3543WAT     H211172   2.304   0.663   5.349
 3544WAT      O11173   3.449   0.779   5.394
 3544WAT     H111174   3.357   0.817   5.389
 3544WAT     H211175   3.509   0.826   5.329
 3545WAT      O11176   2.875   0.105   5.494
 3545WAT     H111177   2.881   0.190   5.442
 3545WAT     H211178   2.907   0.029   5.437
 3546WAT      O11179   2.366   0.050   5.464
 3546WAT     H111180   2.324  -0.007   5.394
 3546WAT     H211181   2.300   0.119   5.496
 3547WAT      O11182   2.435   0.870   4.753
 3547WAT     H111183   2.479   0.959   4.744
 3547WAT     H211184   2.372   0.870   4.830
 3548WAT      O11185   3.222   0.862   4.769
 3548WAT     H111186   3.147   0.862   4.703
 3548WAT     H211187   3.259   0.770   4.778
 3549WAT      O11188   3.071   0.525   3.999
 3549WAT     H111189   3.084   0.441   4.053
 3549WAT     H211190   3.042   0.599   4.059
 3550WAT      O11191   2.169   0.213   4.955
 3550WAT     H111192   2.146   0.250   5.045
 3550WAT     H211193   2.139   0.118   4.949
 3551WAT      O11194   1.899   1.310   5.006
 3551WAT     H111195   1.952   1.261   5.074
 3551WAT     H211196   1.921   1.408   5.011
 3552WAT      O11197   2.594   0.634   4.788
 3552WAT     H111198   2.653   0.608   4.712
 3552WAT     H211199   2.566   0.730   4.777
 3553WAT      O11200   3.590   0.935   5.578
 3553WAT     H111201   3.544   0.928   5.489
 3553WAT     H211202   3.528   0.979   5.644
 3554WAT      O11203   2.169   0.063   4.342
 3554WAT     H111204   2.158   0.157   4.375
 3554WAT     H211205   2.164   0.000   4.419
 3555WAT      O11206   3.484   0.367   4.098
 3555WAT     H111207   3.486   0.291   4.162
 3555WAT     H211208   3.436   0.444   4.138
 3556WAT      O11209   2.885   0.766   4.690
 3556WAT     H111210   2.900   0.787   4.786
 3556WAT     H211211   2.855   0.671   4.681
 3557WAT      O11212   2.842   1.573   5.424
 3557WAT     H111213   2.822   1.617   5.336
 3557WAT     H211214   2.881   1.482   5.408
 3558WAT      O11215   3.721   1.518   5.329
 3558WAT     H111216   3.735   1.545   5.234
 3558WAT     H211217   3.804   1.540   5.382
 3559WAT      O11218   2.212   0.898   5.528
 3559WAT     H111219   2.288   0.942   5.576
 3559WAT     H211220   2.247   0.851   5.446
 3560WAT      O11221   3.402   0.274   3.849
 3560WAT     H111222   3.341   0.199   3.872
 3560WAT     H211223   3.424   0.326   3.932
 3561WAT      O11224   3.165   0.838   3.766
 3561WAT     H111225   3.199   0.745   3.781
 3561WAT     H211226   3.183   0.865   3.671
 3562WAT      O11227   2.930   1.333   4.573
 3562WAT     H111228   2.937   1.249   4.518
 3562WAT     H211229   2.992   1.402   4.537
 3563WAT      O11230   2.181   0.810   4.673
 3563WAT     H111231   2.274   0.846   4.678
 3563WAT     H211232   2.175   0.725   4.725
 3564WAT      O11233   2.201   0.509   4.730
 3564WAT     H111234   2.149   0.426   4.713
 3564WAT     H211235   2.278   0.514   4.666
 3565WAT      O11236   3.000   0.380   5.402
 3565WAT     H111237   2.955   0.443   5.466
 3565WAT     H211238   3.093   0.411   5.385
 3566WAT      O11239   3.022   0.207   5.201
 3566WAT     H111240   3.022   0.271   5.278
 3566WAT     H211241   3.050   0.255   5.118
 3567WAT      O11242   1.870   1.326   3.924
 3567WAT     H111243   1.777   1.347   3.893
 3567WAT     H211244   1.880   1.227   3.937
 3568WAT      O11245   1.950   1.801   4.651
 3568WAT     H111246   1.908   1.715   4.624
 3568WAT     H211247   2.044   1.804   4.617
 3569WAT      O11248   2.366   1.568   4.634
 3569WAT     H111249   2.432   1.642   4.643
 3569WAT     H211250   2.410   1.489   4.592
 3570WAT      O11251   2.864   0.796   4.962
 3570WAT     H111252   2.905   0.764   5.048
 3570WAT     H211253   2.768   0.769   4.959
 3571WAT      O11254   1.902   0.544   4.838
 3571WAT     H111255   1.987   0.511   4.797
 3571WAT     H211256   1.915   0.559   4.936
 3572WAT      O11257   2.051   0.520   5.446
 3572WAT     H111258   2.110   0.480   5.376
 3572WAT     H211259   1.993   0.591   5.405
 3573WAT      O11260   3.231   0.950   5.384
 3573WAT     H111261   3.270   1.039   5.404
 3573WAT     H211262   3.241   0.930   5.287
 3574WAT      O11263   2.677   0.572   4.049
 3574WAT     H111264   2.684   0.483   4.003
 3574WAT     H211265   2.583   0.606   4.041
 3575WAT      O11266   3.519   0.604   4.930
 3575WAT     H111267   3.481   0.535   4.992
 3575WAT     H211268   3.601   0.568   4.886
 3576WAT      O11269   2.114   1.564   5.468
 3576WAT     H111270   2.084   1.621   5.544
 3576WAT     H211271   2.107   1.467   5.494
 3577WAT      O11272   2.533   0.464   4.993
 3577WAT     H111273   2.499   0.375   4.963
 3577WAT     H211274   2.559   0.518   4.913
 3578WAT      O11275   2.792   1.678   5.189
 3578WAT     H111276   2.768   1.660   5.094
 3578WAT     H211277   2.822   1.772   5.199
 3579WAT      O11278   2.335   0.500   3.915
 3579WAT     H111279   2.396   0.580   3.919
 3579WAT     H211280   2.240   0.531   3.922
 3580WAT      O11281   2.021   1.137   5.190
 3580WAT     H111282   2.043   1.076   5.266
 3580WAT     H211283   2.031   1.088   5.104
 3581WAT      O11284   3.209   1.059   4.958
 3581WAT     H111285   3.233   0.996   4.884
 3581WAT     H211286   3.119   1.099   4.940
 3582WAT      O11287   3.164   0.855   4.033
 3582WAT     H111288   3.078   0.824   4.075
 3582WAT     H211289   3.160   0.841   3.934
 3583WAT      O11290   3.621   1.747   4.878
 3583WAT     H111291   3.682   1.777   4.805
 3583WAT     H211292   3.583   1.658   4.856
 3584WAT      O11293   3.114   1.731   4.852
 3584WAT     H111294   3.198   1.736   4.798
 3584WAT     H211295   3.091   1.635   4.870
 3585WAT      O11296   1.945   1.258   4.746
 3585WAT     H111297   1.940   1.257   4.846
 3585WAT     H211298   1.862   1.217   4.708
 3586WAT      O11299   2.550   1.662   5.440
 3586WAT     H111300   2.494   1.743   5.449
 3586WAT     H211301   2.602   1.666   5.354
 3587WAT      O11302   3.588   0.135   4.247
 3587WAT     H111303   3.661   0.118   4.180
 3587WAT     H211304   3.557   0.048   4.285
 3588WAT      O11305   3.250   1.573   4.201
 3588WAT     H111306   3.317   1.585   4.127
 3588WAT     H211307   3.210   1.662   4.224
 3589WAT      O11308   1.992   1.794   5.575
 3589WAT     H111309   1.951   1.720   5.628
 3589WAT     H211310   2.056   1.845   5.633
 3590WAT      O11311   3.142   0.927   4.396
 3590WAT     H111312   3.202   0.846   4.398
 3590WAT     H211313   3.182   0.996   4.336
 3591WAT      O11314   2.692   1.273   5.146
 3591WAT     H111315   2.687   1.306   5.241
 3591WAT     H211316   2.606   1.292   5.100
 3592WAT      O11317   2.534   1.616   3.878
 3592WAT     H111318   2.543   1.626   3.779
 3592WAT     H211319   2.494   1.527   3.899
 3593WAT      O11320   3.512   1.720   5.118
 3593WAT     H111321   3.565   1.730   5.034
 3593WAT     H211322   3.485   1.810   5.152
 3594WAT      O11323   3.703   0.175   4.687
 3594WAT     H111324   3.742   0.090   4.651
 3594WAT     H211325   3.605   0.177   4.668
 3595WAT      O11326   2.125   0.326   4.444
 3595WAT     H111327   2.046   0.377   4.410
 3595WAT     H211328   2.116   0.311   4.542
 3596WAT      O11329   3.056   1.612   3.755
 3596WAT     H111330   3.062   1.519   3.792
 3596WAT     H211331   2.997   1.612   3.675
 3597WAT      O11332   2.684   1.002   5.096
 3597WAT     H111333   2.724   1.001   5.004
 3597WAT     H211334   2.694   1.094   5.136
 3598WAT      O11335   2.778   0.910   4.015
 3598WAT     H111336   2.841   0.948   3.947
 3598WAT     H211337   2.818   0.827   4.054
 3599WAT      O11338   3.366   1.607   3.768
 3599WAT     H111339   3.274   1.644   3.775
 3599WAT     H211340   3.404   1.627   3.678
 3600WAT      O11341   2.234   1.288   5.214
 3600WAT     H111342   2.221   1.381   5.180
 3600WAT     H211343   2.150   1.236   5.201
 3601WAT      O11344   3.476   1.292   5.013
 3601WAT     H111345   3.536   1.295   5.093
 3601WAT     H211346   3.401   1.356   5.026
 3602WAT      O11347   2.901   1.098   4.420
 3602WAT     H111348   2.831   1.051   4.474
 3602WAT     H211349   2.960   1.030   4.377
 3603WAT      O11350   2.876   0.236   4.695
 3603WAT     H111351   2.868   0.200   4.602
 3603WAT     H211352   2.874   0.160   4.760
 3604WAT      O11353   2.452   1.487   4.215
 3604WAT     H111354   2.494   1.429   4.145
 3604WAT     H211355   2.408   1.566   4.171
 3605WAT      O11356   3.571   0.385   5.105
 3605WAT     H111357   3.644   0.454   5.109
 3605WAT     H211358   3.599   0.310   5.046
 3606WAT      O11359   2.117   1.348   4.014
 3606WAT     H111360   2.021   1.349   3.987
 3606WAT     H211361   2.129   1.401   4.098
 3607WAT      O11362   1.967   1.013   5.450
 3607WAT     H111363   1.890   0.980   5.504
 3607WAT     H211364   2.052   0.983   5.492
 3608WAT      O11365   2.534   0.203   5.213
 3608WAT     H111366   2.624   0.187   5.173
 3608WAT     H211367   2.542   0.208   5.312
 3609WAT      O11368   1.937   0.345   3.757
 3609WAT     H111369   1.845   0.317   3.728
 3609WAT     H211370   1.968   0.422   3.701
 3610WAT      O11371   3.302   0.856   5.122
 3610WAT     H111372   3.245   0.908   5.059
 3610WAT     H211373   3.398   0.868   5.098
 3611WAT      O11374   1.934   0.166   4.042
 3611WAT     H111375   1.917   0.249   3.988
 3611WAT     H211376   2.024   0.129   4.020
 3612WAT      O11377   3.045   1.335   3.843
 3612WAT     H111378   2.946   1.324   3.845
 3612WAT     H211379   3.079   1.350   3.936
 3613WAT      O11380   2.475   0.842   5.155
 3613WAT     H111381   2.531   0.923   5.138
 3613WAT     H211382   2.534   0.762   5.158
 3614WAT      O11383   3.355   1.767   4.683
 3614WAT     H111384   3.388   1.831   4.614
 3614WAT     H211385   3.421   1.761   4.758
 3615WAT      O11386   2.578   0.565   5.432
 3615WAT     H111387   2.597   0.630   5.506
 3615WAT     H211388   2.638   0.485   5.441
 3616WAT      O11389   3.312   1.220   5.357
 3616WAT     H111390   3.303   1.210   5.456
 3616WAT     H211391   3.408   1.213   5.331
 3617WAT      O11392   2.252   1.741   5.284
 3617WAT     H111393   2.161   1.782   5.282
 3617WAT     H211394   2.245   1.647   5.316
 3618WAT      O11395   3.536   0.883   4.978
 3618WAT     H111396   3.509   0.794   4.941
 3618WAT     H211397   3.537   0.951   4.905
 3619WAT      O11398   3.087   0.325   4.173
 3619WAT     H111399   3.152   0.251   4.162
 3619WAT     H211400   3.107   0.375   4.257
 3620WAT      O11401   2.456   0.745   4.376
 3620WAT     H111402   2.506   0.830   4.357
 3620WAT     H211403   2.368   0.747   4.328
 3621WAT      O11404   3.639   0.342   5.366
 3621WAT     H111405   3.622   0.373   5.272
 3621WAT     H211406   3.555   0.305   5.404
 3622WAT      O11407   3.592   0.934   5.241
 3622WAT     H111408   3.630   1.025   5.256
 3622WAT     H211409   3.584   0.917   5.142
 3623WAT      O11410   2.721   1.374   3.740
 3623WAT     H111411   2.675   1.389   3.828
 3623WAT     H211412   2.765   1.459   3.710
 3624WAT      O11413   2.523   1.790   4.677
 3624WAT     H111414   2.477   1.878   4.664
 3624WAT     H211415   2.622   1.802   4.670
 3625WAT      O11416   2.721   0.956   4.585
 3625WAT     H111417   2.775   0.887   4.633
 3625WAT     H211418   2.689   1.025   4.651
 3626WAT      O11419   2.945   0.984   3.811
 3626WAT     H111420   2.922   1.037   3.729
 3626WAT     H211421   3.026   0.928   3.792
 3627WAT      O11422   3.723   1.569   4.575
 3627WAT     H111423   3.652   1.557   4.505
 3627WAT     H211424   3.724   1.490   4.635
 3628WAT      O11425   2.083   1.314   5.568
 3628WAT     H111426   2.018   1.241   5.547
 3628WAT     H211427   2.087   1.328   5.666
 3629WAT      O11428   1.941   1.240   4.377
 3629WAT     H111429   1.940   1.193   4.465
 3629WAT     H211430   2.023   1.212   4.326
 3630WAT      O11431   2.534   1.391   5.348
 3630WAT     H111432   2.456   1.341   5.386
 3630WAT     H211433   2.531   1.486   5.379
 3631WAT      O11434   3.686   0.192   4.951
 3631WAT     H111435   3.682   0.102   4.995
 3631WAT     H211436   3.689   0.181   4.852
 3632WAT      O11437   2.290   0.424   4.244
 3632WAT     H111438   2.320   0.352   4.182
 3632WAT     H211439   2.251   0.384   4.327
 3633WAT      O11440   3.567   1.487   4.828
 3633WAT     H111441   3.474   1.462   4.801
 3633WAT     H211442   3.593   1.437   4.910
 3634WAT      O11443   2.179   0.547   5.004
 3634WAT     H111444   2.217   0.488   5.076
 3634WAT     H211445   2.219   0.521   4.916
 3635WAT      O11446   2.674   1.586   4.411
 3635WAT     H111447   2.706   1.596   4.317
 3635WAT     H211448   2.595   1.524   4.413
 3636WAT      O11449   3.286   0.214   4.836
 3636WAT     H111450   3.338   0.149   4.891
 3636WAT     H211451   3.237   0.277   4.897
 3637WAT      O11452   2.863   0.034   4.878
 3637WAT     H111453   2.800  -0.038   4.847
 3637WAT     H211454   2.956  -0.002   4.878
 3638WAT      O11455   2.632   1.330   4.025
 3638WAT     H111456   2.586   1.243   4.042
 3638WAT     H211457   2.723   1.327   4.066
 3639WAT      O11458   2.480   1.567   5.008
 3639WAT     H111459   2.475   1.649   5.065
 3639WAT     H211460   2.569   1.564   4.963
 3640WAT      O11461   3.214   0.052   3.892
 3640WAT     H111462   3.249   0.011   3.808
 3640WAT     H211463   3.124   0.014   3.912
 3641WAT      O11464   3.162   0.453   4.415
 3641WAT     H111465   3.103   0.533   4.419
 3641WAT     H211466   3.177   0.418   4.508
 3642WAT      O11467   3.455   0.221   4.606
 3642WAT     H111468   3.371   0.220   4.660
 3642WAT     H211469   3.457   0.304   4.550
 3643WAT      O11470   1.901   1.077   4.024
 3643WAT     H111471   2.000   1.066   4.015
 3643WAT     H211472   1.861   0.991   4.056
 3644WAT      O11473   2.737   1.646   4.061
 3644WAT     H111474   2.660   1.611   4.007
 3644WAT     H211475   2.705   1.717   4.123
 3645WAT      O11476   2.092   0.628   5.699
 3645WAT     H111477   1.999   0.626   5.736
 3645WAT     H211478   2.093   0.589   5.607
 3646WAT      O11479   2.087   0.275   6.582
 3646WAT     H111480   2.122   0.258   6.674
 3646WAT     H211481   1.999   0.230   6.570
 3647WAT      O11482   1.881   0.368   6.233
 3647WAT     H111483   1.799   0.411   6.272
 3647WAT     H211484   1.853   0.295   6.170
 3648WAT      O11485   2.431   1.275   6.751
 3648WAT     H111486   2.338   1.268   6.714
 3648WAT     H211487   2.442   1.364   6.795
 3649WAT      O11488   3.417   1.511   6.289
 3649WAT     H111489   3.360   1.495   6.370
 3649WAT     H211490   3.358   1.521   6.209
 3650WAT      O11491   2.997   0.703   6.303
 3650WAT     H111492   3.054   0.781   6.278
 3650WAT     H211493   2.937   0.729   6.379
 3651WAT      O11494   3.617   0.607   5.817
 3651WAT     H111495   3.605   0.594   5.718
 3651WAT     H211496   3.587   0.526   5.866
 3652WAT      O11497   2.630   1.144   6.609
 3652WAT     H111498   2.552   1.161   6.669
 3652WAT     H211499   2.664   1.231   6.573
 3653WAT      O11500   2.547   1.012   6.251
 3653WAT     H111501   2.616   0.996   6.321
 3653WAT     H211502   2.474   1.069   6.289
 3654WAT      O11503   2.197   1.435   6.647
 3654WAT     H111504   2.119   1.404   6.594
 3654WAT     H211505   2.255   1.493   6.590
 3655WAT      O11506   3.465   0.447   6.323
 3655WAT     H111507   3.391   0.493   6.273
 3655WAT     H211508   3.516   0.515   6.376
 3656WAT      O11509   2.093   1.713   6.069
 3656WAT     H111510   2.127   1.790   6.123
 3656WAT     H211511   2.137   1.713   5.979
 3657WAT      O11512   2.092   1.434   6.124
 3657WAT     H111513   2.066   1.530   6.124
 3657WAT     H211514   2.021   1.380   6.169
 3658WAT      O11515   2.102   1.091   6.472
 3658WAT     H111516   2.116   1.007   6.524
 3658WAT     H211517   2.047   1.155   6.527
 3659WAT      O11518   2.482   1.786   7.025
 3659WAT     H111519   2.390   1.769   7.060
 3659WAT     H211520   2.510   1.878   7.051
 3660WAT      O11521   2.468   0.964   5.709
 3660WAT     H111522   2.475   1.048   5.655
 3660WAT     H211523   2.514   0.977   5.797
 3661WAT      O11524   1.984   0.643   6.149
 3661WAT     H111525   1.939   0.555   6.166
 3661WAT     H211526   1.983   0.697   6.233
 3662WAT      O11527   3.704   1.767   5.945
 3662WAT     H111528   3.758   1.738   6.025
 3662WAT     H211529   3.734   1.857   5.916
 3663WAT      O11530   1.889   1.596   5.703
 3663WAT     H111531   1.870   1.500   5.724
 3663WAT     H211532   1.856   1.654   5.778
 3664WAT      O11533   3.551   0.922   6.198
 3664WAT     H111534   3.646   0.893   6.206
 3664WAT     H211535   3.543   0.987   6.123
 3665WAT      O11536   3.503   1.108   6.018
 3665WAT     H111537   3.589   1.110   5.966
 3665WAT     H211538   3.517   1.155   6.106
 3666WAT      O11539   2.475   1.365   6.312
 3666WAT     H111540   2.426   1.278   6.321
 3666WAT     H211541   2.452   1.408   6.225
 3667WAT      O11542   2.671   0.004   6.088
 3667WAT     H111543   2.711   0.095   6.079
 3667WAT     H211544   2.571   0.012   6.094
 3668WAT      O11545   2.059   0.976   6.850
 3668WAT     H111546   2.148   0.931   6.836
 3668WAT     H211547   1.986   0.911   6.831
 3669WAT      O11548   3.387   0.999   5.776
 3669WAT     H111549   3.324   0.923   5.789
 3669WAT     H211550   3.435   1.017   5.862
 3670WAT      O11551   3.328   1.417   6.539
 3670WAT     H111552   3.269   1.423   6.619
 3670WAT     H211553   3.313   1.329   6.493
 3671WAT      O11554   3.529   1.714   6.158
 3671WAT     H111555   3.488   1.691   6.070
 3671WAT     H211556   3.511   1.640   6.223
 3672WAT      O11557   2.460   0.729   5.856
 3672WAT     H111558   2.484   0.798   5.788
 3672WAT     H211559   2.382   0.762   5.910
 3673WAT      O11560   3.143   0.345   6.530
 3673WAT     H111561   3.057   0.295   6.517
 3673WAT     H211562   3.205   0.291   6.586
 3674WAT      O11563   3.438   1.662   5.893
 3674WAT     H111564   3.527   1.708   5.896
 3674WAT     H211565   3.417   1.638   5.798
 3675WAT      O11566   2.669   0.605   7.051
 3675WAT     H111567   2.622   0.602   7.140
 3675WAT     H211568   2.618   0.550   6.985
 3676WAT      O11569   2.853   0.410   6.828
 3676WAT     H111570   2.776   0.444   6.882
 3676WAT     H211571   2.819   0.359   6.749
 3677WAT      O11572   2.903   0.701   6.015
 3677WAT     H111573   2.929   0.697   6.111
 3677WAT     H211574   2.818   0.650   6.001
 3678WAT      O11575   1.938   0.811   6.375
 3678WAT     H111576   2.037   0.799   6.384
 3678WAT     H211577   1.914   0.906   6.396
 3679WAT      O11578   1.992   1.821   7.157
 3679WAT     H111579   1.982   1.806   7.256
 3679WAT     H211580   1.906   1.857   7.121
 3680WAT      O11581   2.727   0.348   5.781
 3680WAT     H111582   2.786   0.411   5.732
 3680WAT     H211583   2.746   0.254   5.752
 3681WAT      O11584   3.224   1.144   6.131
 3681WAT     H111585   3.307   1.115   6.083
 3681WAT     H211586   3.175   1.211   6.075
 3682WAT      O11587   2.412   0.196   6.471
 3682WAT     H111588   2.407   0.191   6.571
 3682WAT     H211589   2.414   0.292   6.442
 3683WAT      O11590   2.870   1.456   6.063
 3683WAT     H111591   2.824   1.528   6.011
 3683WAT     H211592   2.866   1.476   6.161
 3684WAT      O11593   2.213   1.801   6.439
 3684WAT     H111594   2.263   1.715   6.445
 3684WAT     H211595   2.278   1.878   6.436
 3685WAT      O11596   3.657   1.066   6.459
 3685WAT     H111597   3.595   1.051   6.383
 3685WAT     H211598   3.605   1.077   6.544
 3686WAT      O11599   2.183   0.943   5.828
 3686WAT     H111600   2.265   0.982   5.786
 3686WAT     H211601   2.156   0.861   5.779
 3687WAT      O11602   3.320   0.735   6.314
 3687WAT     H111603   3.315   0.670   6.389
 3687WAT     H211604   3.400   0.794   6.327
 3688WAT      O11605   2.973   1.776   5.823
 3688WAT     H111606   2.913   1.714   5.873
 3688WAT     H211607   3.004   1.732   5.738
 3689WAT      O11608   3.494   1.377   5.667
 3689WAT     H111609   3.462   1.471   5.657
 3689WAT     H211610   3.418   1.314   5.655
 3690WAT      O11611   2.326   1.743   5.909
 3690WAT     H111612   2.359   1.782   5.995
 3690WAT     H211613   2.402   1.736   5.844
 3691WAT      O11614   3.262   0.107   6.012
 3691WAT     H111615   3.238   0.070   5.922
 3691WAT     H211616   3.361   0.123   6.016
 3692WAT      O11617   2.111   1.785   6.827
 3692WAT     H111618   2.168   1.720   6.877
 3692WAT     H211619   2.095   1.752   6.734
 3693WAT      O11620   2.802   1.698   6.490
 3693WAT     H111621   2.882   1.641   6.511
 3693WAT     H211622   2.753   1.658   6.413
 3694WAT      O11623   2.244   0.700   6.066
 3694WAT     H111624   2.289   0.610   6.063
 3694WAT     H211625   2.150   0.689   6.099
 3695WAT      O11626   2.476   0.122   5.703
 3695WAT     H111627   2.574   0.100   5.710
 3695WAT     H211628   2.445   0.105   5.610
 3696WAT      O11629   2.750   1.514   6.781
 3696WAT     H111630   2.727   1.489   6.687
 3696WAT     H211631   2.811   1.445   6.820
 3697WAT      O11632   2.665   1.402   6.510
 3697WAT     H111633   2.755   1.416   6.468
 3697WAT     H211634   2.594   1.404   6.439
 3698WAT      O11635   2.784   0.503   6.485
 3698WAT     H111636   2.759   0.494   6.389
 3698WAT     H211637   2.832   0.421   6.516
 3699WAT      O11638   2.401   0.064   6.098
 3699WAT     H111639   2.320   0.065   6.156
 3699WAT     H211640   2.404   0.147   6.043
 3700WAT      O11641   3.296   1.188   5.627
 3700WAT     H111642   3.328   1.112   5.684
 3700WAT     H211643   3.204   1.215   5.657
 3701WAT      O11644   2.159   0.035   5.757
 3701WAT     H111645   2.208   0.119   5.736
 3701WAT     H211646   2.221  -0.030   5.802
 3702WAT      O11647   2.797   0.236   6.066
 3702WAT     H111648   2.749   0.277   5.988
 3702WAT     H211649   2.896   0.234   6.047
 3703WAT      O11650   3.089   1.570   6.379
 3703WAT     H111651   3.110   1.644   6.314
 3703WAT     H211652   3.157   1.570   6.452
 3704WAT      O11653   2.321   1.152   6.327
 3704WAT     H111654   2.250   1.125   6.392
 3704WAT     H211655   2.295   1.124   6.234
 3705WAT      O11656   3.133   1.797   6.177
 3705WAT     H111657   3.177   1.861   6.113
 3705WAT     H211658   3.083   1.849   6.247
 3706WAT      O11659   2.894   0.549   5.602
 3706WAT     H111660   2.853   0.631   5.563
 3706WAT     H211661   2.958   0.575   5.675
 3707WAT      O11662   2.423   0.222   6.733
 3707WAT     H111663   2.461   0.138   6.770
 3707WAT     H211664   2.335   0.241   6.777
 3708WAT      O11665   2.728   0.454   6.228
 3708WAT     H111666   2.696   0.526   6.166
 3708WAT     H211667   2.752   0.373   6.175
 3709WAT      O11668   2.879   0.039   6.339
 3709WAT     H111669   2.807   0.044   6.270
 3709WAT     H211670   2.855  -0.030   6.408
 3710WAT      O11671   3.291   1.173   6.453
 3710WAT     H111672   3.236   1.089   6.446
 3710WAT     H211673   3.317   1.202   6.361
 3711WAT      O11674   3.328   0.590   6.578
 3711WAT     H111675   3.298   0.495   6.585
 3711WAT     H211676   3.401   0.606   6.644
 3712WAT      O11677   3.719   0.833   5.963
 3712WAT     H111678   3.761   0.769   6.027
 3712WAT     H211679   3.681   0.782   5.885
 3713WAT      O11680   2.350   1.385   5.760
 3713WAT     H111681   2.263   1.370   5.807
 3713WAT     H211682   2.333   1.411   5.665
 3714WAT      O11683   3.526   1.280   6.243
 3714WAT     H111684   3.625   1.288   6.257
 3714WAT     H211685   3.481   1.364   6.274
 3715WAT      O11686   3.252   0.575   5.664
 3715WAT     H111687   3.198   0.554   5.745
 3715WAT     H211688   3.343   0.534   5.673
 3716WAT      O11689   2.389   0.256   5.914
 3716WAT     H111690   2.416   0.197   5.839
 3716WAT     H211691   2.389   0.351   5.883
 3717WAT      O11692   3.616   1.223   7.174
 3717WAT     H111693   3.707   1.184   7.161
 3717WAT     H211694   3.624   1.319   7.198
 3718WAT      O11695   2.973   1.195   6.686
 3718WAT     H111696   2.933   1.239   6.767
 3718WAT     H211697   2.932   1.232   6.603
 3719WAT      O11698   3.500   1.099   6.665
 3719WAT     H111699   3.505   1.180   6.724
 3719WAT     H211700   3.414   1.101   6.614
 3720WAT      O11701   2.567   1.050   5.954
 3720WAT     H111702   2.553   1.057   6.053
 3720WAT     H211703   2.651   0.999   5.936
 3721WAT      O11704   2.272   0.813   6.837
 3721WAT     H111705   2.358   0.825   6.887
 3721WAT     H211706   2.230   0.726   6.864
 3722WAT      O11707   3.136   0.386   6.848
 3722WAT     H111708   3.157   0.460   6.912
 3722WAT     H211709   3.047   0.403   6.805
 3723WAT      O11710   1.926   1.564   6.917
 3723WAT     H111711   1.880   1.646   6.883
 3723WAT     H211712   2.024   1.583   6.926
 3724WAT      O11713   2.229   1.100   6.087
 3724WAT     H111714   2.222   1.183   6.031
 3724WAT     H211715   2.233   1.020   6.027
 3725WAT      O11716   2.428   0.537   6.451
 3725WAT     H111717   2.440   0.603   6.377
 3725WAT     H211718   2.474   0.571   6.534
 3726WAT      O11719   3.114   1.348   5.974
 3726WAT     H111720   3.164   1.425   6.014
 3726WAT     H211721   3.019   1.350   6.006
 3727WAT      O11722   3.134   1.445   6.728
 3727WAT     H111723   3.181   1.458   6.815
 3727WAT     H211724   3.068   1.371   6.737
 3728WAT      O11725   3.444   0.639   6.058
 3728WAT     H111726   3.413   0.700   6.131
 3728WAT     H211727   3.494   0.691   5.989
 3729WAT      O11728   2.216   1.510   6.915
 3729WAT     H111729   2.195   1.466   6.828
 3729WAT     H211730   2.313   1.536   6.918
 3730WAT      O11731   2.435   0.870   6.615
 3730WAT     H111732   2.479   0.959   6.606
 3730WAT     H211733   2.372   0.870   6.692
 3731WAT      O11734   3.222   0.862   6.631
 3731WAT     H111735   3.147   0.862   6.565
 3731WAT     H211736   3.259   0.770   6.640
 3732WAT      O11737   3.071   0.525   5.861
 3732WAT     H111738   3.084   0.441   5.915
 3732WAT     H211739   3.042   0.599   5.921
 3733WAT      O11740   2.169   0.213   6.817
 3733WAT     H111741   2.146   0.250   6.907
 3733WAT     H211742   2.139   0.118   6.811
 3734WAT      O11743   1.899   1.310   6.868
 3734WAT     H111744   1.952   1.261   6.936
 3734WAT     H211745   1.921   1.408   6.873
 3735WAT      O11746   2.594   0.634   6.650
 3735WAT     H111747   2.653   0.608   6.574
 3735WAT     H211748   2.566   0.730   6.639
 3736WAT      O11749   2.169   0.063   6.204
 3736WAT     H111750   2.158   0.157   6.237
 3736WAT     H211751   2.164   0.000   6.281
 3737WAT      O11752   3.484   0.367   5.960
 3737WAT     H111753   3.486   0.291   6.024
 3737WAT     H211754   3.436   0.444   6.000
 3738WAT      O11755   2.885   0.766   6.552
 3738WAT     H111756   2.900   0.787   6.648
 3738WAT     H211757   2.855   0.671   6.543
 3739WAT      O11758   3.402   0.274   5.711
 3739WAT     H111759   3.341   0.199   5.734
 3739WAT     H211760   3.424   0.326   5.794
 3740WAT      O11761   3.165   0.838   5.628
 3740WAT     H111762   3.199   0.745   5.643
 3740WAT     H211763   3.183   0.865   5.533
 3741WAT      O11764   2.930   1.333   6.435
 3741WAT     H111765   2.937   1.249   6.380
 3741WAT     H211766   2.992   1.402   6.399
 3742WAT      O11767   2.181   0.810   6.535
 3742WAT     H111768   2.274   0.846   6.540
 3742WAT     H211769   2.175   0.725   6.587
 3743WAT      O11770   2.201   0.509   6.592
 3743WAT     H111771   2.149   0.426   6.575
 3743WAT     H211772   2.278   0.514   6.528
 3744WAT      O11773   3.022   0.207   7.063
 3744WAT     H111774   3.022   0.271   7.140
 3744WAT     H211775   3.050   0.255   6.980
 3745WAT      O11776   1.870   1.326   5.786
 3745WAT     H111777   1.777   1.347   5.755
 3745WAT     H211778   1.880   1.227   5.799
 3746WAT      O11779   1.950   1.801   6.513
 3746WAT     H111780   1.908   1.715   6.486
 3746WAT     H211781   2.044   1.804   6.479
 3747WAT      O11782   2.366   1.568   6.496
 3747WAT     H111783   2.432   1.642   6.505
 3747WAT     H211784   2.410   1.489   6.454
 3748WAT      O11785   2.864   0.796   6.824
 3748WAT     H111786   2.905   0.764   6.910
 3748WAT     H211787   2.768   0.769   6.821
 3749WAT      O11788   1.902   0.544   6.700
 3749WAT     H111789   1.987   0.511   6.659
 3749WAT     H211790   1.915   0.559   6.798
 3750WAT      O11791   2.677   0.572   5.911
 3750WAT     H111792   2.684   0.483   5.865
 3750WAT     H211793   2.583   0.606   5.903
 3751WAT      O11794   3.519   0.604   6.792
 3751WAT     H111795   3.481   0.535   6.854
 3751WAT     H211796   3.601   0.568   6.748
 3752WAT      O11797   2.533   0.464   6.855
 3752WAT     H111798   2.499   0.375   6.825
 3752WAT     H211799   2.559   0.518   6.775
 3753WAT      O11800   2.792   1.678   7.051
 3753WAT     H111801   2.768   1.660   6.956
 3753WAT     H211802   2.822   1.772   7.061
 3754WAT      O11803   2.335   0.500   5.777
 3754WAT     H111804   2.396   0.580   5.781
 3754WAT     H211805   2.240   0.531   5.784
 3755WAT      O11806   2.021   1.137   7.052
 3755WAT     H111807   2.043   1.076   7.128
 3755WAT     H211808   2.031   1.088   6.966
 3756WAT      O11809   3.209   1.059   6.820
 3756WAT     H111810   3.233   0.996   6.746
 3756WAT     H211811   3.119   1.099   6.802
 3757WAT      O11812   3.164   0.855   5.895
 3757WAT     H111813   3.078   0.824   5.937
 3757WAT     H211814   3.160   0.841   5.796
 3758WAT      O11815   3.621   1.747   6.740
 3758WAT     H111816   3.682   1.777   6.667
 3758WAT     H211817   3.583   1.658   6.718
 3759WAT      O11818   3.114   1.731   6.714
 3759WAT     H111819   3.198   1.736   6.660
 3759WAT     H211820   3.091   1.635   6.732
 3760WAT      O11821   1.945   1.258   6.608
 3760WAT     H111822   1.940   1.257   6.708
 3760WAT     H211823   1.862   1.217   6.570
 3761WAT      O11824   3.588   0.135   6.109
 3761WAT     H111825   3.661   0.118   6.042
 3761WAT     H211826   3.557   0.048   6.147
 3762WAT      O11827   3.250   1.573   6.063
 3762WAT     H111828   3.317   1.585   5.989
 3762WAT     H211829   3.210   1.662   6.086
 3763WAT      O11830   3.142   0.927   6.258
 3763WAT     H111831   3.202   0.846   6.260
 3763WAT     H211832   3.182   0.996   6.198
 3764WAT      O11833   2.534   1.616   5.740
 3764WAT     H111834   2.543   1.626   5.641
 3764WAT     H211835   2.494   1.527   5.761
 3765WAT      O11836   3.703   0.175   6.549
 3765WAT     H111837   3.742   0.090   6.513
 3765WAT     H211838   3.605   0.177   6.530
 3766WAT      O11839   2.125   0.326   6.306
 3766WAT     H111840   2.046   0.377   6.272
 3766WAT     H211841   2.116   0.311   6.404
 3767WAT      O11842   3.056   1.612   5.617
 3767WAT     H111843   3.062   1.519   5.654
 3767WAT     H211844   2.997   1.612   5.537
 3768WAT      O11845   2.684   1.002   6.958
 3768WAT     H111846   2.724   1.001   6.866
 3768WAT     H211847   2.694   1.094   6.998
 3769WAT      O11848   2.778   0.910   5.877
 3769WAT     H111849   2.841   0.948   5.809
 3769WAT     H211850   2.818   0.827   5.916
 3770WAT      O11851   3.366   1.607   5.630
 3770WAT     H111852   3.274   1.644   5.637
 3770WAT     H211853   3.404   1.627   5.540
 3771WAT      O11854   3.476   1.292   6.875
 3771WAT     H111855   3.536   1.295   6.955
 3771WAT     H211856   3.401   1.356   6.888
 3772WAT      O11857   2.901   1.098   6.282
 3772WAT     H111858   2.831   1.051   6.336
 3772WAT     H211859   2.960   1.030   6.239
 3773WAT      O11860   2.876   0.236   6.557
 3773WAT     H111861   2.868   0.200   6.464
 3773WAT     H211862   2.874   0.160   6.622
 3774WAT      O11863   2.452   1.487   6.077
 3774WAT     H111864   2.494   1.429   6.007
 3774WAT     H211865   2.408   1.566   6.033
 3775WAT      O11866   3.571   0.385   6.967
 3775WAT     H111867   3.644   0.454   6.971
 3775WAT     H211868   3.599   0.310   6.908
 3776WAT      O11869   2.117   1.348   5.876
 3776WAT     H111870   2.021   1.349   5.849
 3776WAT     H211871   2.129   1.401   5.960
 3777WAT      O11872   1.937   0.345   5.619
 3777WAT     H111873   1.845   0.317   5.590
 3777WAT     H211874   1.968   0.422   5.563
 3778WAT      O11875   1.934   0.166   5.904
 3778WAT     H111876   1.917   0.249   5.850
 3778WAT     H211877   2.024   0.129   5.882
 3779WAT      O11878   3.045   1.335   5.705
 3779WAT     H111879   2.946   1.324   5.707
 3779WAT     H211880   3.079   1.350   5.798
 3780WAT      O11881   3.355   1.767   6.545
 3780WAT     H111882   3.388   1.831   6.476
 3780WAT     H211883   3.421   1.761   6.620
 3781WAT      O11884   3.312   1.220   7.219
 3781WAT     H111885   3.303   1.210   7.318
 3781WAT     H211886   3.408   1.213   7.193
 3782WAT      O11887   2.252   1.741   7.146
 3782WAT     H111888   2.161   1.782   7.144
 3782WAT     H211889   2.245   1.647   7.178
 3783WAT      O11890   3.536   0.883   6.840
 3783WAT     H111891   3.509   0.794   6.803
 3783WAT     H211892   3.537   0.951   6.767
 3784WAT      O11893   3.087   0.325   6.035
 3784WAT     H111894   3.152   0.251   6.024
 3784WAT     H211895   3.107   0.375   6.119
 3785WAT      O11896   2.456   0.745   6.238
 3785WAT     H111897   2.506   0.830   6.219
 3785WAT     H211898   2.368   0.747   6.190
 3786WAT      O11899   3.592   0.934   7.103
 3786WAT     H111900   3.630   1.025   7.118
 3786WAT     H211901   3.584   0.917   7.004
 3787WAT      O11902   2.721   1.374   5.602
 3787WAT     H111903   2.675   1.389   5.690
 3787WAT     H211904   2.765   1.459   5.572
 3788WAT      O11905   2.523   1.790   6.539
 3788WAT     H111906   2.477   1.878   6.526
 3788WAT     H211907   2.622   1.802   6.532
 3789WAT      O11908   2.721   0.956   6.447
 3789WAT     H111909   2.775   0.887   6.495
 3789WAT     H211910   2.689   1.025   6.513
 3790WAT      O11911   2.945   0.984   5.673
 3790WAT     H111912   2.922   1.037   5.591
 3790WAT     H211913   3.026   0.928   5.654
 3791WAT      O11914   3.723   1.569   6.437
 3791WAT     H111915   3.652   1.557   6.367
 3791WAT     H211916   3.724   1.490   6.497
 3792WAT      O11917   1.941   1.240   6.239
 3792WAT     H111918   1.940   1.193   6.327
 3792WAT     H211919   2.023   1.212   6.188
 3793WAT      O11920   3.686   0.192   6.813
 3793WAT     H111921   3.682   0.102   6.857
 3793WAT     H211922   3.689   0.181   6.714
 3794WAT      O11923   2.290   0.424   6.106
 3794WAT     H111924   2.320   0.352   6.044
 3794WAT     H211925   2.251   0.384   6.189
 3795WAT      O11926   3.567   1.487   6.690
 3795WAT     H111927   3.474   1.462   6.663
 3795WAT     H211928   3.593   1.437   6.772
 3796WAT      O11929   2.179   0.547   6.866
 3796WAT     H111930   2.217   0.488   6.938
 3796WAT     H211931   2.219   0.521   6.778
 3797WAT      O11932   2.674   1.586   6.273
 3797WAT     H111933   2.706   1.596   6.179
 3797WAT     H211934   2.595   1.524   6.275
 3798WAT      O11935   3.286   0.214   6.698
 3798WAT     H111936   3.338   0.149   6.753
 3798WAT     H211937   3.237   0.277   6.759
 3799WAT      O11938   2.863   0.034   6.740
 3799WAT     H111939   2.800  -0.038   6.709
 3799WAT     H211940   2.956  -0.002   6.740
 3800WAT      O11941   2.632   1.330   5.887
 3800WAT     H111942   2.586   1.243   5.904
 3800WAT     H211943   2.723   1.327   5.928
 3801WAT      O11944   2.480   1.567   6.870
 3801WAT     H111945   2.475   1.649   6.927
 3801WAT     H211946   2.569   1.564   6.825
 3802WAT      O11947   3.214   0.052   5.754
 3802WAT     H111948   3.249   0.011   5.670
 3802WAT     H211949   3.124   0.014   5.774
 3803WAT      O11950   3.162   0.453   6.277
 3803WAT     H111951   3.103   0.533   6.281
 3803WAT     H211952   3.177   0.418   6.370
 3804WAT      O11953   3.455   0.221   6.468
 3804WAT     H111954   3.371   0.220   6.522
 3804WAT     H211955   3.457   0.304   6.412
 3805WAT      O11956   1.901   1.077   5.886
 3805WAT     H111957   2.000   1.066   5.877
 3805WAT     H211958   1.861   0.991   5.918
 3806WAT      O11959   2.737   1.646   5.923
 3806WAT     H111960   2.660   1.611   5.869
 3806WAT     H211961   2.705   1.717   5.985
 3807WAT      O11962   2.092   2.490   0.113
 3807WAT     H111963   1.999   2.488   0.150
 3807WAT     H211964   2.093   2.451   0.021
 3808WAT      O11965   2.087   2.137   0.996
 3808WAT     H111966   2.122   2.120   1.088
 3808WAT     H211967   1.999   2.092   0.984
 3809WAT      O11968   1.881   2.230   0.647
 3809WAT     H111969   1.799   2.273   0.686
 3809WAT     H211970   1.853   2.157   0.584
 3810WAT      O11971   2.431   3.137   1.165
 3810WAT     H111972   2.338   3.130   1.128
 3810WAT     H211973   2.442   3.226   1.209
 3811WAT      O11974   3.417   3.373   0.703
 3811WAT     H111975   3.360   3.357   0.784
 3811WAT     H211976   3.358   3.383   0.623
 3812WAT      O11977   2.997   2.565   0.717
 3812WAT     H111978   3.054   2.643   0.692
 3812WAT     H211979   2.937   2.591   0.793
 3813WAT      O11980   3.617   2.469   0.231
 3813WAT     H111981   3.605   2.456   0.132
 3813WAT     H211982   3.587   2.388   0.280
 3814WAT      O11983   2.630   3.006   1.023
 3814WAT     H111984   2.552   3.023   1.083
 3814WAT     H211985   2.664   3.093   0.987
 3815WAT      O11986   2.712   2.660   1.823
 3815WAT     H111987   2.708   2.736   1.888
 3815WAT     H211988   2.734   2.696   1.732
 3816WAT      O11989   2.547   2.874   0.665
 3816WAT     H111990   2.616   2.858   0.735
 3816WAT     H211991   2.474   2.931   0.703
 3817WAT      O11992   2.548   3.023   1.803
 3817WAT     H111993   2.608   3.102   1.817
 3817WAT     H211994   2.462   3.054   1.762
 3818WAT      O11995   2.197   3.297   1.061
 3818WAT     H111996   2.119   3.266   1.008
 3818WAT     H211997   2.255   3.355   1.004
 3819WAT      O11998   3.322   3.367   1.339
 3819WAT     H111999   3.346   3.461   1.365
 3819WAT     H212000   3.306   3.313   1.421
 3820WAT      O12001   2.300   2.254   1.499
 3820WAT     H112002   2.382   2.198   1.508
 3820WAT     H212003   2.219   2.196   1.503
 3821WAT      O12004   3.465   2.309   0.737
 3821WAT     H112005   3.391   2.355   0.687
 3821WAT     H212006   3.516   2.377   0.790
 3822WAT      O12007   2.093   3.575   0.483
 3822WAT     H112008   2.127   3.652   0.537
 3822WAT     H212009   2.137   3.575   0.393
 3823WAT      O12010   2.989   3.203   1.690
 3823WAT     H112011   3.036   3.203   1.778
 3823WAT     H212012   2.941   3.116   1.679
 3824WAT      O12013   2.092   3.296   0.538
 3824WAT     H112014   2.066   3.392   0.538
 3824WAT     H212015   2.021   3.242   0.583
 3825WAT      O12016   2.102   2.953   0.886
 3825WAT     H112017   2.116   2.869   0.938
 3825WAT     H212018   2.047   3.017   0.941
 3826WAT      O12019   2.482   3.648   1.439
 3826WAT     H112020   2.390   3.631   1.474
 3826WAT     H212021   2.510   3.740   1.465
 3827WAT      O12022   2.468   2.826   0.123
 3827WAT     H112023   2.475   2.910   0.069
 3827WAT     H212024   2.514   2.839   0.211
 3828WAT      O12025   3.456   1.976   1.480
 3828WAT     H112026   3.438   2.043   1.408
 3828WAT     H212027   3.453   2.022   1.569
 3829WAT      O12028   1.984   2.505   0.563
 3829WAT     H112029   1.939   2.417   0.580
 3829WAT     H212030   1.983   2.559   0.647
 3830WAT      O12031   3.704   3.629   0.359
 3830WAT     H112032   3.758   3.600   0.439
 3830WAT     H212033   3.734   3.719   0.330
 3831WAT      O12034   3.551   2.784   0.612
 3831WAT     H112035   3.646   2.755   0.620
 3831WAT     H212036   3.543   2.849   0.537
 3832WAT      O12037   3.503   2.970   0.432
 3832WAT     H112038   3.589   2.972   0.380
 3832WAT     H212039   3.517   3.017   0.520
 3833WAT      O12040   1.975   2.599   1.597
 3833WAT     H112041   2.063   2.586   1.642
 3833WAT     H212042   1.962   2.696   1.575
 3834WAT      O12043   2.475   3.227   0.726
 3834WAT     H112044   2.426   3.140   0.735
 3834WAT     H212045   2.452   3.270   0.639
 3835WAT      O12046   3.155   3.090   1.423
 3835WAT     H112047   3.192   3.017   1.365
 3835WAT     H212048   3.207   3.095   1.508
 3836WAT      O12049   2.671   1.866   0.502
 3836WAT     H112050   2.711   1.957   0.493
 3836WAT     H212051   2.571   1.874   0.508
 3837WAT      O12052   2.059   2.838   1.264
 3837WAT     H112053   2.148   2.793   1.250
 3837WAT     H212054   1.986   2.773   1.245
 3838WAT      O12055   3.387   2.861   0.190
 3838WAT     H112056   3.324   2.785   0.203
 3838WAT     H212057   3.435   2.879   0.276
 3839WAT      O12058   3.049   3.654   1.616
 3839WAT     H112059   3.073   3.714   1.540
 3839WAT     H212060   3.056   3.559   1.586
 3840WAT      O12061   2.179   2.113   1.801
 3840WAT     H112062   2.250   2.184   1.807
 3840WAT     H212063   2.091   2.152   1.829
 3841WAT      O12064   3.328   3.279   0.953
 3841WAT     H112065   3.269   3.285   1.033
 3841WAT     H212066   3.313   3.191   0.907
 3842WAT      O12067   3.529   3.576   0.572
 3842WAT     H112068   3.488   3.553   0.484
 3842WAT     H212069   3.511   3.502   0.637
 3843WAT      O12070   2.460   2.591   0.270
 3843WAT     H112071   2.484   2.660   0.202
 3843WAT     H212072   2.382   2.624   0.324
 3844WAT      O12073   3.143   2.207   0.944
 3844WAT     H112074   3.057   2.157   0.931
 3844WAT     H212075   3.205   2.153   1.000
 3845WAT      O12076   3.438   3.524   0.307
 3845WAT     H112077   3.527   3.570   0.310
 3845WAT     H212078   3.417   3.500   0.212
 3846WAT      O12079   2.669   2.467   1.465
 3846WAT     H112080   2.622   2.464   1.554
 3846WAT     H212081   2.618   2.412   1.399
 3847WAT      O12082   3.256   2.331   1.674
 3847WAT     H112083   3.236   2.374   1.762
 3847WAT     H212084   3.334   2.269   1.683
 3848WAT      O12085   2.835   2.752   1.572
 3848WAT     H112086   2.881   2.668   1.543
 3848WAT     H212087   2.779   2.786   1.497
 3849WAT      O12088   2.853   2.272   1.242
 3849WAT     H112089   2.776   2.306   1.296
 3849WAT     H212090   2.819   2.221   1.163
 3850WAT      O12091   2.903   2.563   0.429
 3850WAT     H112092   2.929   2.559   0.525
 3850WAT     H212093   2.818   2.512   0.415
 3851WAT      O12094   1.938   2.673   0.789
 3851WAT     H112095   2.037   2.661   0.798
 3851WAT     H212096   1.914   2.768   0.810
 3852WAT      O12097   1.992   3.683   1.571
 3852WAT     H112098   1.982   3.668   1.670
 3852WAT     H212099   1.906   3.719   1.535
 3853WAT      O12100   2.727   2.210   0.195
 3853WAT     H112101   2.786   2.273   0.146
 3853WAT     H212102   2.746   2.116   0.166
 3854WAT      O12103   3.581   2.447   1.831
 3854WAT     H112104   3.555   2.536   1.795
 3854WAT     H212105   3.579   2.379   1.758
 3855WAT      O12106   3.224   3.006   0.545
 3855WAT     H112107   3.307   2.977   0.497
 3855WAT     H212108   3.175   3.073   0.489
 3856WAT      O12109   2.412   2.058   0.885
 3856WAT     H112110   2.407   2.053   0.985
 3856WAT     H212111   2.414   2.154   0.856
 3857WAT      O12112   2.870   3.318   0.477
 3857WAT     H112113   2.824   3.390   0.425
 3857WAT     H212114   2.866   3.338   0.575
 3858WAT      O12115   2.213   3.663   0.853
 3858WAT     H112116   2.263   3.577   0.859
 3858WAT     H212117   2.278   3.740   0.850
 3859WAT      O12118   3.657   2.928   0.873
 3859WAT     H112119   3.595   2.913   0.797
 3859WAT     H212120   3.605   2.939   0.958
 3860WAT      O12121   3.089   3.412   1.506
 3860WAT     H112122   3.095   3.335   1.570
 3860WAT     H212123   3.037   3.386   1.426
 3861WAT      O12124   2.183   2.805   0.242
 3861WAT     H112125   2.265   2.844   0.200
 3861WAT     H212126   2.156   2.723   0.193
 3862WAT      O12127   3.320   2.597   0.728
 3862WAT     H112128   3.315   2.532   0.803
 3862WAT     H212129   3.400   2.656   0.741
 3863WAT      O12130   2.323   3.128   1.727
 3863WAT     H112131   2.273   3.129   1.641
 3863WAT     H212132   2.260   3.110   1.803
 3864WAT      O12133   2.973   3.638   0.237
 3864WAT     H112134   2.913   3.576   0.287
 3864WAT     H212135   3.004   3.594   0.152
 3865WAT      O12136   2.064   2.147   1.498
 3865WAT     H112137   1.984   2.207   1.485
 3865WAT     H212138   2.054   2.098   1.584
 3866WAT      O12139   3.494   3.239   0.081
 3866WAT     H112140   3.462   3.333   0.071
 3866WAT     H212141   3.418   3.176   0.069
 3867WAT      O12142   2.326   3.605   0.323
 3867WAT     H112143   2.359   3.644   0.409
 3867WAT     H212144   2.402   3.598   0.258
 3868WAT      O12145   2.111   3.647   1.241
 3868WAT     H112146   2.168   3.582   1.291
 3868WAT     H212147   2.095   3.614   1.148
 3869WAT      O12148   2.802   3.560   0.904
 3869WAT     H112149   2.882   3.503   0.925
 3869WAT     H212150   2.753   3.520   0.827
 3870WAT      O12151   2.244   2.562   0.480
 3870WAT     H112152   2.289   2.472   0.477
 3870WAT     H212153   2.150   2.551   0.513
 3871WAT      O12154   3.409   2.084   1.729
 3871WAT     H112155   3.404   2.121   1.821
 3871WAT     H212156   3.337   2.015   1.717
 3872WAT      O12157   2.643   2.126   1.749
 3872WAT     H112158   2.710   2.065   1.792
 3872WAT     H212159   2.570   2.145   1.814
 3873WAT      O12160   2.750   3.376   1.195
 3873WAT     H112161   2.727   3.351   1.101
 3873WAT     H212162   2.811   3.307   1.234
 3874WAT      O12163   3.213   2.452   1.433
 3874WAT     H112164   3.241   2.409   1.518
 3874WAT     H212165   3.238   2.548   1.434
 3875WAT      O12166   2.665   3.264   0.924
 3875WAT     H112167   2.755   3.278   0.882
 3875WAT     H212168   2.594   3.266   0.853
 3876WAT      O12169   2.784   2.365   0.899
 3876WAT     H112170   2.759   2.356   0.803
 3876WAT     H212171   2.832   2.283   0.930
 3877WAT      O12172   2.401   1.926   0.512
 3877WAT     H112173   2.320   1.927   0.570
 3877WAT     H212174   2.404   2.009   0.457
 3878WAT      O12175   3.296   3.050   0.041
 3878WAT     H112176   3.328   2.974   0.098
 3878WAT     H212177   3.204   3.077   0.071
 3879WAT      O12178   2.797   2.098   0.480
 3879WAT     H112179   2.749   2.139   0.402
 3879WAT     H212180   2.896   2.096   0.461
 3880WAT      O12181   2.938   2.545   1.464
 3880WAT     H112182   2.858   2.484   1.467
 3880WAT     H212183   3.019   2.492   1.440
 3881WAT      O12184   3.089   3.432   0.793
 3881WAT     H112185   3.110   3.506   0.728
 3881WAT     H212186   3.157   3.432   0.866
 3882WAT      O12187   2.321   3.014   0.741
 3882WAT     H112188   2.250   2.987   0.806
 3882WAT     H212189   2.295   2.986   0.648
 3883WAT      O12190   3.133   3.659   0.591
 3883WAT     H112191   3.177   3.723   0.527
 3883WAT     H212192   3.083   3.711   0.661
 3884WAT      O12193   2.894   2.411   0.016
 3884WAT     H112194   2.853   2.493  -0.023
 3884WAT     H212195   2.958   2.437   0.089
 3885WAT      O12196   1.940   2.418   1.386
 3885WAT     H112197   2.032   2.417   1.345
 3885WAT     H212198   1.934   2.492   1.453
 3886WAT      O12199   2.423   2.084   1.147
 3886WAT     H112200   2.461   2.000   1.184
 3886WAT     H212201   2.335   2.103   1.191
 3887WAT      O12202   2.728   2.316   0.642
 3887WAT     H112203   2.696   2.388   0.580
 3887WAT     H212204   2.752   2.235   0.589
 3888WAT      O12205   2.879   1.901   0.753
 3888WAT     H112206   2.807   1.906   0.684
 3888WAT     H212207   2.855   1.832   0.822
 3889WAT      O12208   3.291   3.035   0.867
 3889WAT     H112209   3.236   2.951   0.860
 3889WAT     H212210   3.317   3.064   0.775
 3890WAT      O12211   3.328   2.452   0.992
 3890WAT     H112212   3.298   2.357   0.999
 3890WAT     H212213   3.401   2.468   1.058
 3891WAT      O12214   3.719   2.695   0.377
 3891WAT     H112215   3.761   2.631   0.441
 3891WAT     H212216   3.681   2.644   0.299
 3892WAT      O12217   2.350   3.247   0.174
 3892WAT     H112218   2.263   3.232   0.221
 3892WAT     H212219   2.333   3.273   0.079
 3893WAT      O12220   3.526   3.142   0.657
 3893WAT     H112221   3.625   3.150   0.671
 3893WAT     H212222   3.481   3.226   0.688
 3894WAT      O12223   3.252   2.437   0.078
 3894WAT     H112224   3.198   2.416   0.159
 3894WAT     H212225   3.343   2.396   0.087
 3895WAT      O12226   2.389   2.118   0.328
 3895WAT     H112227   2.416   2.059   0.253
 3895WAT     H212228   2.389   2.213   0.297
 3896WAT      O12229   3.616   3.085   1.588
 3896WAT     H112230   3.707   3.046   1.575
 3896WAT     H212231   3.624   3.181   1.612
 3897WAT      O12232   2.926   3.209   1.340
 3897WAT     H112233   2.846   3.186   1.395
 3897WAT     H212234   3.009   3.183   1.389
 3898WAT      O12235   3.454   3.491   1.625
 3898WAT     H112236   3.481   3.525   1.535
 3898WAT     H212237   3.533   3.453   1.671
 3899WAT      O12238   2.973   3.057   1.100
 3899WAT     H112239   2.933   3.101   1.181
 3899WAT     H212240   2.932   3.094   1.017
 3900WAT      O12241   3.500   2.961   1.079
 3900WAT     H112242   3.505   3.042   1.138
 3900WAT     H212243   3.414   2.963   1.028
 3901WAT      O12244   2.777   1.951   1.402
 3901WAT     H112245   2.802   1.931   1.307
 3901WAT     H212246   2.849   2.007   1.444
 3902WAT      O12247   2.842   2.978   1.719
 3902WAT     H112248   2.743   2.984   1.729
 3902WAT     H212249   2.865   2.898   1.663
 3903WAT      O12250   2.567   2.912   0.368
 3903WAT     H112251   2.553   2.919   0.467
 3903WAT     H212252   2.651   2.861   0.350
 3904WAT      O12253   2.272   2.675   1.251
 3904WAT     H112254   2.358   2.687   1.301
 3904WAT     H212255   2.230   2.588   1.278
 3905WAT      O12256   3.136   2.248   1.262
 3905WAT     H112257   3.157   2.322   1.326
 3905WAT     H212258   3.047   2.265   1.219
 3906WAT      O12259   1.926   3.426   1.331
 3906WAT     H112260   1.880   3.508   1.297
 3906WAT     H212261   2.024   3.445   1.340
 3907WAT      O12262   2.229   2.962   0.501
 3907WAT     H112263   2.222   3.045   0.445
 3907WAT     H212264   2.233   2.882   0.441
 3908WAT      O12265   2.428   2.399   0.865
 3908WAT     H112266   2.440   2.465   0.791
 3908WAT     H212267   2.474   2.433   0.948
 3909WAT      O12268   3.114   3.210   0.388
 3909WAT     H112269   3.164   3.287   0.428
 3909WAT     H212270   3.019   3.212   0.420
 3910WAT      O12271   3.134   3.307   1.142
 3910WAT     H112272   3.181   3.320   1.229
 3910WAT     H212273   3.068   3.233   1.151
 3911WAT      O12274   3.444   2.501   0.472
 3911WAT     H112275   3.413   2.562   0.545
 3911WAT     H212276   3.494   2.553   0.403
 3912WAT      O12277   2.216   3.372   1.329
 3912WAT     H112278   2.195   3.328   1.242
 3912WAT     H212279   2.313   3.398   1.332
 3913WAT      O12280   2.264   2.613   1.598
 3913WAT     H112281   2.332   2.668   1.551
 3913WAT     H212282   2.304   2.525   1.625
 3914WAT      O12283   3.449   2.641   1.670
 3914WAT     H112284   3.357   2.679   1.665
 3914WAT     H212285   3.509   2.688   1.605
 3915WAT      O12286   2.875   1.967   1.770
 3915WAT     H112287   2.881   2.052   1.718
 3915WAT     H212288   2.907   1.891   1.713
 3916WAT      O12289   2.366   1.912   1.740
 3916WAT     H112290   2.324   1.855   1.670
 3916WAT     H212291   2.300   1.981   1.772
 3917WAT      O12292   2.435   2.732   1.029
 3917WAT     H112293   2.479   2.821   1.020
 3917WAT     H212294   2.372   2.732   1.106
 3918WAT      O12295   3.222   2.724   1.045
 3918WAT     H112296   3.147   2.724   0.979
 3918WAT     H212297   3.259   2.632   1.054
 3919WAT      O12298   3.071   2.387   0.275
 3919WAT     H112299   3.084   2.303   0.329
 3919WAT     H212300   3.042   2.461   0.335
 3920WAT      O12301   2.169   2.075   1.231
 3920WAT     H112302   2.146   2.112   1.321
 3920WAT     H212303   2.139   1.980   1.225
 3921WAT      O12304   1.899   3.172   1.282
 3921WAT     H112305   1.952   3.123   1.350
 3921WAT     H212306   1.921   3.270   1.287
 3922WAT      O12307   2.594   2.496   1.064
 3922WAT     H112308   2.653   2.470   0.988
 3922WAT     H212309   2.566   2.592   1.053
 3923WAT      O12310   3.590   2.797   1.854
 3923WAT     H112311   3.544   2.790   1.765
 3923WAT     H212312   3.528   2.841   1.920
 3924WAT      O12313   2.169   1.925   0.618
 3924WAT     H112314   2.158   2.019   0.651
 3924WAT     H212315   2.164   1.862   0.695
 3925WAT      O12316   3.484   2.229   0.374
 3925WAT     H112317   3.486   2.153   0.438
 3925WAT     H212318   3.436   2.306   0.414
 3926WAT      O12319   2.885   2.628   0.966
 3926WAT     H112320   2.900   2.649   1.062
 3926WAT     H212321   2.855   2.533   0.957
 3927WAT      O12322   2.842   3.435   1.700
 3927WAT     H112323   2.822   3.479   1.612
 3927WAT     H212324   2.881   3.344   1.684
 3928WAT      O12325   3.721   3.380   1.605
 3928WAT     H112326   3.735   3.407   1.510
 3928WAT     H212327   3.804   3.402   1.658
 3929WAT      O12328   2.212   2.760   1.804
 3929WAT     H112329   2.288   2.804   1.852
 3929WAT     H212330   2.247   2.713   1.722
 3930WAT      O12331   3.402   2.136   0.125
 3930WAT     H112332   3.341   2.061   0.148
 3930WAT     H212333   3.424   2.188   0.208
 3931WAT      O12334   3.165   2.700   0.042
 3931WAT     H112335   3.199   2.607   0.057
 3931WAT     H212336   3.183   2.727  -0.053
 3932WAT      O12337   2.930   3.195   0.849
 3932WAT     H112338   2.937   3.111   0.794
 3932WAT     H212339   2.992   3.264   0.813
 3933WAT      O12340   2.181   2.672   0.949
 3933WAT     H112341   2.274   2.708   0.954
 3933WAT     H212342   2.175   2.587   1.001
 3934WAT      O12343   2.201   2.371   1.006
 3934WAT     H112344   2.149   2.288   0.989
 3934WAT     H212345   2.278   2.376   0.942
 3935WAT      O12346   3.000   2.242   1.678
 3935WAT     H112347   2.955   2.305   1.742
 3935WAT     H212348   3.093   2.273   1.661
 3936WAT      O12349   3.022   2.069   1.477
 3936WAT     H112350   3.022   2.133   1.554
 3936WAT     H212351   3.050   2.117   1.394
 3937WAT      O12352   1.950   3.663   0.927
 3937WAT     H112353   1.908   3.577   0.900
 3937WAT     H212354   2.044   3.666   0.893
 3938WAT      O12355   2.366   3.430   0.910
 3938WAT     H112356   2.432   3.504   0.919
 3938WAT     H212357   2.410   3.351   0.868
 3939WAT      O12358   2.864   2.658   1.238
 3939WAT     H112359   2.905   2.626   1.324
 3939WAT     H212360   2.768   2.631   1.235
 3940WAT      O12361   1.902   2.406   1.114
 3940WAT     H112362   1.987   2.373   1.073
 3940WAT     H212363   1.915   2.421   1.212
 3941WAT      O12364   2.051   2.382   1.722
 3941WAT     H112365   2.110   2.342   1.652
 3941WAT     H212366   1.993   2.453   1.681
 3942WAT      O12367   3.231   2.812   1.660
 3942WAT     H112368   3.270   2.901   1.680
 3942WAT     H212369   3.241   2.792   1.563
 3943WAT      O12370   2.677   2.434   0.325
 3943WAT     H112371   2.684   2.345   0.279
 3943WAT     H212372   2.583   2.468   0.317
 3944WAT      O12373   3.519   2.466   1.206
 3944WAT     H112374   3.481   2.397   1.268
 3944WAT     H212375   3.601   2.430   1.162
 3945WAT      O12376   2.114   3.426   1.744
 3945WAT     H112377   2.084   3.483   1.820
 3945WAT     H212378   2.107   3.329   1.770
 3946WAT      O12379   2.533   2.326   1.269
 3946WAT     H112380   2.499   2.237   1.239
 3946WAT     H212381   2.559   2.380   1.189
 3947WAT      O12382   2.792   3.540   1.465
 3947WAT     H112383   2.768   3.522   1.370
 3947WAT     H212384   2.822   3.634   1.475
 3948WAT      O12385   2.335   2.362   0.191
 3948WAT     H112386   2.396   2.442   0.195
 3948WAT     H212387   2.240   2.393   0.198
 3949WAT      O12388   2.021   2.999   1.466
 3949WAT     H112389   2.043   2.938   1.542
 3949WAT     H212390   2.031   2.950   1.380
 3950WAT      O12391   3.209   2.921   1.234
 3950WAT     H112392   3.233   2.858   1.160
 3950WAT     H212393   3.119   2.961   1.216
 3951WAT      O12394   3.164   2.717   0.309
 3951WAT     H112395   3.078   2.686   0.351
 3951WAT     H212396   3.160   2.703   0.210
 3952WAT      O12397   3.621   3.609   1.154
 3952WAT     H112398   3.682   3.639   1.081
 3952WAT     H212399   3.583   3.520   1.132
 3953WAT      O12400   3.114   3.593   1.128
 3953WAT     H112401   3.198   3.598   1.074
 3953WAT     H212402   3.091   3.497   1.146
 3954WAT      O12403   1.945   3.120   1.022
 3954WAT     H112404   1.940   3.119   1.122
 3954WAT     H212405   1.862   3.079   0.984
 3955WAT      O12406   2.550   3.524   1.716
 3955WAT     H112407   2.494   3.605   1.725
 3955WAT     H212408   2.602   3.528   1.630
 3956WAT      O12409   2.765   1.948   0.133
 3956WAT     H112410   2.816   1.949   0.047
 3956WAT     H212411   2.821   1.906   0.204
 3957WAT      O12412   3.588   1.997   0.523
 3957WAT     H112413   3.661   1.980   0.456
 3957WAT     H212414   3.557   1.910   0.561
 3958WAT      O12415   3.250   3.435   0.477
 3958WAT     H112416   3.317   3.447   0.403
 3958WAT     H212417   3.210   3.524   0.500
 3959WAT      O12418   1.992   3.656   1.851
 3959WAT     H112419   1.951   3.582   1.904
 3959WAT     H212420   2.056   3.707   1.909
 3960WAT      O12421   3.142   2.789   0.672
 3960WAT     H112422   3.202   2.708   0.674
 3960WAT     H212423   3.182   2.858   0.612
 3961WAT      O12424   2.692   3.135   1.422
 3961WAT     H112425   2.687   3.168   1.517
 3961WAT     H212426   2.606   3.154   1.376
 3962WAT      O12427   2.534   3.478   0.154
 3962WAT     H112428   2.543   3.488   0.055
 3962WAT     H212429   2.494   3.389   0.175
 3963WAT      O12430   3.512   3.582   1.394
 3963WAT     H112431   3.565   3.592   1.310
 3963WAT     H212432   3.485   3.672   1.428
 3964WAT      O12433   3.703   2.037   0.963
 3964WAT     H112434   3.742   1.952   0.927
 3964WAT     H212435   3.605   2.039   0.944
 3965WAT      O12436   2.125   2.188   0.720
 3965WAT     H112437   2.046   2.239   0.686
 3965WAT     H212438   2.116   2.173   0.818
 3966WAT      O12439   3.056   3.474   0.031
 3966WAT     H112440   3.062   3.381   0.068
 3966WAT     H212441   2.997   3.474  -0.049
 3967WAT      O12442   2.684   2.864   1.372
 3967WAT     H112443   2.724   2.863   1.280
 3967WAT     H212444   2.694   2.956   1.412
 3968WAT      O12445   2.778   2.772   0.291
 3968WAT     H112446   2.841   2.810   0.223
 3968WAT     H212447   2.818   2.689   0.330
 3969WAT      O12448   3.366   3.469   0.044
 3969WAT     H112449   3.274   3.506   0.051
 3969WAT     H212450   3.404   3.489  -0.046
 3970WAT      O12451   2.234   3.150   1.490
 3970WAT     H112452   2.221   3.243   1.456
 3970WAT     H212453   2.150   3.098   1.477
 3971WAT      O12454   3.476   3.154   1.289
 3971WAT     H112455   3.536   3.157   1.369
 3971WAT     H212456   3.401   3.218   1.302
 3972WAT      O12457   2.901   2.960   0.696
 3972WAT     H112458   2.831   2.913   0.750
 3972WAT     H212459   2.960   2.892   0.653
 3973WAT      O12460   2.876   2.098   0.971
 3973WAT     H112461   2.868   2.062   0.878
 3973WAT     H212462   2.874   2.022   1.036
 3974WAT      O12463   2.452   3.349   0.491
 3974WAT     H112464   2.494   3.291   0.421
 3974WAT     H212465   2.408   3.428   0.447
 3975WAT      O12466   3.571   2.247   1.381
 3975WAT     H112467   3.644   2.316   1.385
 3975WAT     H212468   3.599   2.172   1.322
 3976WAT      O12469   2.117   3.210   0.290
 3976WAT     H112470   2.021   3.211   0.263
 3976WAT     H212471   2.129   3.263   0.374
 3977WAT      O12472   1.967   2.875   1.726
 3977WAT     H112473   1.890   2.842   1.780
 3977WAT     H212474   2.052   2.845   1.768
 3978WAT      O12475   2.534   2.065   1.489
 3978WAT     H112476   2.624   2.049   1.449
 3978WAT     H212477   2.542   2.070   1.588
 3979WAT      O12478   1.937   2.207   0.033
 3979WAT     H112479   1.845   2.179   0.004
 3979WAT     H212480   1.968   2.284  -0.023
 3980WAT      O12481   3.302   2.718   1.398
 3980WAT     H112482   3.245   2.770   1.335
 3980WAT     H212483   3.398   2.730   1.374
 3981WAT      O12484   1.934   2.028   0.318
 3981WAT     H112485   1.917   2.111   0.264
 3981WAT     H212486   2.024   1.991   0.296
 3982WAT      O12487   3.045   3.197   0.119
 3982WAT     H112488   2.946   3.186   0.121
 3982WAT     H212489   3.079   3.212   0.212
 3983WAT      O12490   2.475   2.704   1.431
 3983WAT     H112491   2.531   2.785   1.414
 3983WAT     H212492   2.534   2.624   1.434
 3984WAT      O12493   3.355   3.629   0.959
 3984WAT     H112494   3.388   3.693   0.890
 3984WAT     H212495   3.421   3.623   1.034
 3985WAT      O12496   2.578   2.427   1.708
 3985WAT     H112497   2.597   2.492   1.782
 3985WAT     H212498   2.638   2.347   1.717
 3986WAT      O12499   3.312   3.082   1.633
 3986WAT     H112500   3.303   3.072   1.732
 3986WAT     H212501   3.408   3.075   1.607
 3987WAT      O12502   2.252   3.603   1.560
 3987WAT     H112503   2.161   3.644   1.558
 3987WAT     H212504   2.245   3.509   1.592
 3988WAT      O12505   3.536   2.745   1.254
 3988WAT     H112506   3.509   2.656   1.217
 3988WAT     H212507   3.537   2.813   1.181
 3989WAT      O12508   3.087   2.187   0.449
 3989WAT     H112509   3.152   2.113   0.438
 3989WAT     H212510   3.107   2.237   0.533
 3990WAT      O12511   2.456   2.607   0.652
 3990WAT     H112512   2.506   2.692   0.633
 3990WAT     H212513   2.368   2.609   0.604
 3991WAT      O12514   3.639   2.204   1.642
 3991WAT     H112515   3.622   2.235   1.548
 3991WAT     H212516   3.555   2.167   1.680
 3992WAT      O12517   3.592   2.796   1.517
 3992WAT     H112518   3.630   2.887   1.532
 3992WAT     H212519   3.584   2.779   1.418
 3993WAT      O12520   2.721   3.236   0.016
 3993WAT     H112521   2.675   3.251   0.104
 3993WAT     H212522   2.765   3.321  -0.014
 3994WAT      O12523   2.523   3.652   0.953
 3994WAT     H112524   2.477   3.740   0.940
 3994WAT     H212525   2.622   3.664   0.946
 3995WAT      O12526   2.721   2.818   0.861
 3995WAT     H112527   2.775   2.749   0.909
 3995WAT     H212528   2.689   2.887   0.927
 3996WAT      O12529   2.945   2.846   0.087
 3996WAT     H112530   2.922   2.899   0.005
 3996WAT     H212531   3.026   2.790   0.068
 3997WAT      O12532   3.723   3.431   0.851
 3997WAT     H112533   3.652   3.419   0.781
 3997WAT     H212534   3.724   3.352   0.911
 3998WAT      O12535   2.083   3.176   1.844
 3998WAT     H112536   2.018   3.103   1.823
 3998WAT     H212537   2.087   3.190   1.942
 3999WAT      O12538   1.941   3.102   0.653
 3999WAT     H112539   1.940   3.055   0.741
 3999WAT     H212540   2.023   3.074   0.602
 4000WAT      O12541   2.534   3.253   1.624
 4000WAT     H112542   2.456   3.203   1.662
 4000WAT     H212543   2.531   3.348   1.655
 4001WAT      O12544   3.686   2.054   1.227
 4001WAT     H112545   3.682   1.964   1.271
 4001WAT     H212546   3.689   2.043   1.128
 4002WAT      O12547   2.290   2.286   0.520
 4002WAT     H112548   2.320   2.214   0.458
 4002WAT     H212549   2.251   2.246   0.603
 4003WAT      O12550   3.567   3.349   1.104
 4003WAT     H112551   3.474   3.324   1.077
 4003WAT     H212552   3.593   3.299   1.186
 4004WAT      O12553   2.179   2.409   1.280
 4004WAT     H112554   2.217   2.350   1.352
 4004WAT     H212555   2.219   2.383   1.192
 4005WAT      O12556   2.674   3.448   0.687
 4005WAT     H112557   2.706   3.458   0.593
 4005WAT     H212558   2.595   3.386   0.689
 4006WAT      O12559   3.286   2.076   1.112
 4006WAT     H112560   3.338   2.011   1.167
 4006WAT     H212561   3.237   2.139   1.173
 4007WAT      O12562   2.863   1.896   1.154
 4007WAT     H112563   2.800   1.824   1.123
 4007WAT     H212564   2.956   1.860   1.154
 4008WAT      O12565   2.632   3.192   0.301
 4008WAT     H112566   2.586   3.105   0.318
 4008WAT     H212567   2.723   3.189   0.342
 4009WAT      O12568   2.480   3.429   1.284
 4009WAT     H112569   2.475   3.511   1.341
 4009WAT     H212570   2.569   3.426   1.239
 4010WAT      O12571   3.214   1.914   0.168
 4010WAT     H112572   3.249   1.873   0.084
 4010WAT     H212573   3.124   1.876   0.188
 4011WAT      O12574   3.162   2.315   0.691
 4011WAT     H112575   3.103   2.395   0.695
 4011WAT     H212576   3.177   2.280   0.784
 4012WAT      O12577   3.455   2.083   0.882
 4012WAT     H112578   3.371   2.082   0.936
 4012WAT     H212579   3.457   2.166   0.826
 4013WAT      O12580   1.901   2.939   0.300
 4013WAT     H112581   2.000   2.928   0.291
 4013WAT     H212582   1.861   2.853   0.332
 4014WAT      O12583   2.737   3.508   0.337
 4014WAT     H112584   2.660   3.473   0.283
 4014WAT     H212585   2.705   3.579   0.399
 4015WAT      O12586   2.092   2.490   1.975
 4015WAT     H112587   1.999   2.488   2.012
 4015WAT     H212588   2.093   2.451   1.883
 4016WAT      O12589   2.087   2.137   2.858
 4016WAT     H112590   2.122   2.120   2.950
 4016WAT     H212591   1.999   2.092   2.846
 4017WAT      O12592   1.881   2.230   2.509
 4017WAT     H112593   1.799   2.273   2.548
 4017WAT     H212594   1.853   2.157   2.446
 4018WAT      O12595   2.431   3.137   3.027
 4018WAT     H112596   2.338   3.130   2.990
 4018WAT     H212597   2.442   3.226   3.071
 4019WAT      O12598   3.417   3.373   2.565
 4019WAT     H112599   3.360   3.357   2.646
 4019WAT     H212600   3.358   3.383   2.485
 4020WAT      O12601   2.997   2.565   2.579
 4020WAT     H112602   3.054   2.643   2.554
 4020WAT     H212603   2.937   2.591   2.655
 4021WAT      O12604   3.617   2.469   2.093
 4021WAT     H112605   3.605   2.456   1.994
 4021WAT     H212606   3.587   2.388   2.142
 4022WAT      O12607   2.630   3.006   2.885
 4022WAT     H112608   2.552   3.023   2.945
 4022WAT     H212609   2.664   3.093   2.849
 4023WAT      O12610   2.712   2.660   3.685
 4023WAT     H112611   2.708   2.736   3.750
 4023WAT     H212612   2.734   2.696   3.594
 4024WAT      O12613   2.547   2.874   2.527
 4024WAT     H112614   2.616   2.858   2.597
 4024WAT     H212615   2.474   2.931   2.565
 4025WAT      O12616   2.548   3.023   3.665
 4025WAT     H112617   2.608   3.102   3.679
 4025WAT     H212618   2.462   3.054   3.624
 4026WAT      O12619   2.197   3.297   2.923
 4026WAT     H112620   2.119   3.266   2.870
 4026WAT     H212621   2.255   3.355   2.866
 4027WAT      O12622   2.300   2.254   3.361
 4027WAT     H112623   2.382   2.198   3.370
 4027WAT     H212624   2.219   2.196   3.365
 4028WAT      O12625   2.093   3.575   2.345
 4028WAT     H112626   2.127   3.652   2.399
 4028WAT     H212627   2.137   3.575   2.255
 4029WAT      O12628   2.092   3.296   2.400
 4029WAT     H112629   2.066   3.392   2.400
 4029WAT     H212630   2.021   3.242   2.445
 4030WAT      O12631   2.102   2.953   2.748
 4030WAT     H112632   2.116   2.869   2.800
 4030WAT     H212633   2.047   3.017   2.803
 4031WAT      O12634   2.468   2.826   1.985
 4031WAT     H112635   2.475   2.910   1.931
 4031WAT     H212636   2.514   2.839   2.073
 4032WAT      O12637   3.456   1.976   3.342
 4032WAT     H112638   3.438   2.043   3.270
 4032WAT     H212639   3.453   2.022   3.431
 4033WAT      O12640   1.984   2.505   2.425
 4033WAT     H112641   1.939   2.417   2.442
 4033WAT     H212642   1.983   2.559   2.509
 4034WAT      O12643   3.704   3.629   2.221
 4034WAT     H112644   3.758   3.600   2.301
 4034WAT     H212645   3.734   3.719   2.192
 4035WAT      O12646   1.889   3.458   1.979
 4035WAT     H112647   1.870   3.362   2.000
 4035WAT     H212648   1.856   3.516   2.054
 4036WAT      O12649   3.551   2.784   2.474
 4036WAT     H112650   3.646   2.755   2.482
 4036WAT     H212651   3.543   2.849   2.399
 4037WAT      O12652   3.503   2.970   2.294
 4037WAT     H112653   3.589   2.972   2.242
 4037WAT     H212654   3.517   3.017   2.382
 4038WAT      O12655   1.975   2.599   3.459
 4038WAT     H112656   2.063   2.586   3.504
 4038WAT     H212657   1.962   2.696   3.437
 4039WAT      O12658   2.475   3.227   2.588
 4039WAT     H112659   2.426   3.140   2.597
 4039WAT     H212660   2.452   3.270   2.501
 4040WAT      O12661   2.671   1.866   2.364
 4040WAT     H112662   2.711   1.957   2.355
 4040WAT     H212663   2.571   1.874   2.370
 4041WAT      O12664   2.059   2.838   3.126
 4041WAT     H112665   2.148   2.793   3.112
 4041WAT     H212666   1.986   2.773   3.107
 4042WAT      O12667   3.387   2.861   2.052
 4042WAT     H112668   3.324   2.785   2.065
 4042WAT     H212669   3.435   2.879   2.138
 4043WAT      O12670   2.179   2.113   3.663
 4043WAT     H112671   2.250   2.184   3.669
 4043WAT     H212672   2.091   2.152   3.691
 4044WAT      O12673   3.328   3.279   2.815
 4044WAT     H112674   3.269   3.285   2.895
 4044WAT     H212675   3.313   3.191   2.769
 4045WAT      O12676   3.529   3.576   2.434
 4045WAT     H112677   3.488   3.553   2.346
 4045WAT     H212678   3.511   3.502   2.499
 4046WAT      O12679   2.460   2.591   2.132
 4046WAT     H112680   2.484   2.660   2.064
 4046WAT     H212681   2.382   2.624   2.186
 4047WAT      O12682   3.143   2.207   2.806
 4047WAT     H112683   3.057   2.157   2.793
 4047WAT     H212684   3.205   2.153   2.862
 4048WAT      O12685   3.438   3.524   2.169
 4048WAT     H112686   3.527   3.570   2.172
 4048WAT     H212687   3.417   3.500   2.074
 4049WAT      O12688   2.669   2.467   3.327
 4049WAT     H112689   2.622   2.464   3.416
 4049WAT     H212690   2.618   2.412   3.261
 4050WAT      O12691   3.256   2.331   3.536
 4050WAT     H112692   3.236   2.374   3.624
 4050WAT     H212693   3.334   2.269   3.545
 4051WAT      O12694   2.835   2.752   3.434
 4051WAT     H112695   2.881   2.668   3.405
 4051WAT     H212696   2.779   2.786   3.359
 4052WAT      O12697   2.853   2.272   3.104
 4052WAT     H112698   2.776   2.306   3.158
 4052WAT     H212699   2.819   2.221   3.025
 4053WAT      O12700   2.903   2.563   2.291
 4053WAT     H112701   2.929   2.559   2.387
 4053WAT     H212702   2.818   2.512   2.277
 4054WAT      O12703   1.938   2.673   2.651
 4054WAT     H112704   2.037   2.661   2.660
 4054WAT     H212705   1.914   2.768   2.672
 4055WAT      O12706   1.992   3.683   3.433
 4055WAT     H112707   1.982   3.668   3.532
 4055WAT     H212708   1.906   3.719   3.397
 4056WAT      O12709   2.727   2.210   2.057
 4056WAT     H112710   2.786   2.273   2.008
 4056WAT     H212711   2.746   2.116   2.028
 4057WAT      O12712   3.581   2.447   3.693
 4057WAT     H112713   3.555   2.536   3.657
 4057WAT     H212714   3.579   2.379   3.620
 4058WAT      O12715   3.224   3.006   2.407
 4058WAT     H112716   3.307   2.977   2.359
 4058WAT     H212717   3.175   3.073   2.351
 4059WAT      O12718   2.412   2.058   2.747
 4059WAT     H112719   2.407   2.053   2.847
 4059WAT     H212720   2.414   2.154   2.718
 4060WAT      O12721   2.870   3.318   2.339
 4060WAT     H112722   2.824   3.390   2.287
 4060WAT     H212723   2.866   3.338   2.437
 4061WAT      O12724   2.213   3.663   2.715
 4061WAT     H112725   2.263   3.577   2.721
 4061WAT     H212726   2.278   3.740   2.712
 4062WAT      O12727   3.657   2.928   2.735
 4062WAT     H112728   3.595   2.913   2.659
 4062WAT     H212729   3.605   2.939   2.820
 4063WAT      O12730   2.183   2.805   2.104
 4063WAT     H112731   2.265   2.844   2.062
 4063WAT     H212732   2.156   2.723   2.055
 4064WAT      O12733   3.320   2.597   2.590
 4064WAT     H112734   3.315   2.532   2.665
 4064WAT     H212735   3.400   2.656   2.603
 4065WAT      O12736   2.323   3.128   3.589
 4065WAT     H112737   2.273   3.129   3.503
 4065WAT     H212738   2.260   3.110   3.665
 4066WAT      O12739   2.973   3.638   2.099
 4066WAT     H112740   2.913   3.576   2.149
 4066WAT     H212741   3.004   3.594   2.014
 4067WAT      O12742   2.064   2.147   3.360
 4067WAT     H112743   1.984   2.207   3.347
 4067WAT     H212744   2.054   2.098   3.446
 4068WAT      O12745   3.494   3.239   1.943
 4068WAT     H112746   3.462   3.333   1.933
 4068WAT     H212747   3.418   3.176   1.931
 4069WAT      O12748   2.326   3.605   2.185
 4069WAT     H112749   2.359   3.644   2.271
 4069WAT     H212750   2.402   3.598   2.120
 4070WAT      O12751   3.262   1.969   2.288
 4070WAT     H112752   3.238   1.932   2.198
 4070WAT     H212753   3.361   1.985   2.292
 4071WAT      O12754   2.802   3.560   2.766
 4071WAT     H112755   2.882   3.503   2.787
 4071WAT     H212756   2.753   3.520   2.689
 4072WAT      O12757   2.244   2.562   2.342
 4072WAT     H112758   2.289   2.472   2.339
 4072WAT     H212759   2.150   2.551   2.375
 4073WAT      O12760   3.409   2.084   3.591
 4073WAT     H112761   3.404   2.121   3.683
 4073WAT     H212762   3.337   2.015   3.579
 4074WAT      O12763   2.476   1.984   1.979
 4074WAT     H112764   2.574   1.962   1.986
 4074WAT     H212765   2.445   1.967   1.886
 4075WAT      O12766   2.643   2.126   3.611
 4075WAT     H112767   2.710   2.065   3.654
 4075WAT     H212768   2.570   2.145   3.676
 4076WAT      O12769   2.750   3.376   3.057
 4076WAT     H112770   2.727   3.351   2.963
 4076WAT     H212771   2.811   3.307   3.096
 4077WAT      O12772   3.213   2.452   3.295
 4077WAT     H112773   3.241   2.409   3.380
 4077WAT     H212774   3.238   2.548   3.296
 4078WAT      O12775   2.665   3.264   2.786
 4078WAT     H112776   2.755   3.278   2.744
 4078WAT     H212777   2.594   3.266   2.715
 4079WAT      O12778   2.784   2.365   2.761
 4079WAT     H112779   2.759   2.356   2.665
 4079WAT     H212780   2.832   2.283   2.792
 4080WAT      O12781   2.401   1.926   2.374
 4080WAT     H112782   2.320   1.927   2.432
 4080WAT     H212783   2.404   2.009   2.319
 4081WAT      O12784   3.296   3.050   1.903
 4081WAT     H112785   3.328   2.974   1.960
 4081WAT     H212786   3.204   3.077   1.933
 4082WAT      O12787   2.159   1.897   2.033
 4082WAT     H112788   2.208   1.981   2.012
 4082WAT     H212789   2.221   1.832   2.078
 4083WAT      O12790   2.797   2.098   2.342
 4083WAT     H112791   2.749   2.139   2.264
 4083WAT     H212792   2.896   2.096   2.323
 4084WAT      O12793   2.938   2.545   3.326
 4084WAT     H112794   2.858   2.484   3.329
 4084WAT     H212795   3.019   2.492   3.302
 4085WAT      O12796   3.089   3.432   2.655
 4085WAT     H112797   3.110   3.506   2.590
 4085WAT     H212798   3.157   3.432   2.728
 4086WAT      O12799   2.321   3.014   2.603
 4086WAT     H112800   2.250   2.987   2.668
 4086WAT     H212801   2.295   2.986   2.510
 4087WAT      O12802   3.133   3.659   2.453
 4087WAT     H112803   3.177   3.723   2.389
 4087WAT     H212804   3.083   3.711   2.523
 4088WAT      O12805   2.894   2.411   1.878
 4088WAT     H112806   2.853   2.493   1.839
 4088WAT     H212807   2.958   2.437   1.951
 4089WAT      O12808   1.940   2.418   3.248
 4089WAT     H112809   2.032   2.417   3.207
 4089WAT     H212810   1.934   2.492   3.315
 4090WAT      O12811   2.423   2.084   3.009
 4090WAT     H112812   2.461   2.000   3.046
 4090WAT     H212813   2.335   2.103   3.053
 4091WAT      O12814   2.728   2.316   2.504
 4091WAT     H112815   2.696   2.388   2.442
 4091WAT     H212816   2.752   2.235   2.451
 4092WAT      O12817   2.879   1.901   2.615
 4092WAT     H112818   2.807   1.906   2.546
 4092WAT     H212819   2.855   1.832   2.684
 4093WAT      O12820   3.291   3.035   2.729
 4093WAT     H112821   3.236   2.951   2.722
 4093WAT     H212822   3.317   3.064   2.637
 4094WAT      O12823   3.719   2.695   2.239
 4094WAT     H112824   3.761   2.631   2.303
 4094WAT     H212825   3.681   2.644   2.161
 4095WAT      O12826   2.350   3.247   2.036
 4095WAT     H112827   2.263   3.232   2.083
 4095WAT     H212828   2.333   3.273   1.941
 4096WAT      O12829   3.526   3.142   2.519
 4096WAT     H112830   3.625   3.150   2.533
 4096WAT     H212831   3.481   3.226   2.550
 4097WAT      O12832   3.252   2.437   1.940
 4097WAT     H112833   3.198   2.416   2.021
 4097WAT     H212834   3.343   2.396   1.949
 4098WAT      O12835   2.389   2.118   2.190
 4098WAT     H112836   2.416   2.059   2.115
 4098WAT     H212837   2.389   2.213   2.159
 4099WAT      O12838   2.973   3.057   2.962
 4099WAT     H112839   2.933   3.101   3.043
 4099WAT     H212840   2.932   3.094   2.879
 4100WAT      O12841   2.777   1.951   3.264
 4100WAT     H112842   2.802   1.931   3.169
 4100WAT     H212843   2.849   2.007   3.306
 4101WAT      O12844   2.842   2.978   3.581
 4101WAT     H112845   2.743   2.984   3.591
 4101WAT     H212846   2.865   2.898   3.525
 4102WAT      O12847   2.567   2.912   2.230
 4102WAT     H112848   2.553   2.919   2.329
 4102WAT     H212849   2.651   2.861   2.212
 4103WAT      O12850   2.272   2.675   3.113
 4103WAT     H112851   2.358   2.687   3.163
 4103WAT     H212852   2.230   2.588   3.140
 4104WAT      O12853   3.136   2.248   3.124
 4104WAT     H112854   3.157   2.322   3.188
 4104WAT     H212855   3.047   2.265   3.081
 4105WAT      O12856   2.229   2.962   2.363
 4105WAT     H112857   2.222   3.045   2.307
 4105WAT     H212858   2.233   2.882   2.303
 4106WAT      O12859   2.428   2.399   2.727
 4106WAT     H112860   2.440   2.465   2.653
 4106WAT     H212861   2.474   2.433   2.810
 4107WAT      O12862   3.114   3.210   2.250
 4107WAT     H112863   3.164   3.287   2.290
 4107WAT     H212864   3.019   3.212   2.282
 4108WAT      O12865   3.444   2.501   2.334
 4108WAT     H112866   3.413   2.562   2.407
 4108WAT     H212867   3.494   2.553   2.265
 4109WAT      O12868   2.264   2.613   3.460
 4109WAT     H112869   2.332   2.668   3.413
 4109WAT     H212870   2.304   2.525   3.487
 4110WAT      O12871   3.449   2.641   3.532
 4110WAT     H112872   3.357   2.679   3.527
 4110WAT     H212873   3.509   2.688   3.467
 4111WAT      O12874   2.875   1.967   3.632
 4111WAT     H112875   2.881   2.052   3.580
 4111WAT     H212876   2.907   1.891   3.575
 4112WAT      O12877   2.366   1.912   3.602
 4112WAT     H112878   2.324   1.855   3.532
 4112WAT     H212879   2.300   1.981   3.634
 4113WAT      O12880   2.435   2.732   2.891
 4113WAT     H112881   2.479   2.821   2.882
 4113WAT     H212882   2.372   2.732   2.968
 4114WAT      O12883   3.071   2.387   2.137
 4114WAT     H112884   3.084   2.303   2.191
 4114WAT     H212885   3.042   2.461   2.197
 4115WAT      O12886   2.169   2.075   3.093
 4115WAT     H112887   2.146   2.112   3.183
 4115WAT     H212888   2.139   1.980   3.087
 4116WAT      O12889   2.594   2.496   2.926
 4116WAT     H112890   2.653   2.470   2.850
 4116WAT     H212891   2.566   2.592   2.915
 4117WAT      O12892   3.590   2.797   3.716
 4117WAT     H112893   3.544   2.790   3.627
 4117WAT     H212894   3.528   2.841   3.782
 4118WAT      O12895   2.169   1.925   2.480
 4118WAT     H112896   2.158   2.019   2.513
 4118WAT     H212897   2.164   1.862   2.557
 4119WAT      O12898   3.484   2.229   2.236
 4119WAT     H112899   3.486   2.153   2.300
 4119WAT     H212900   3.436   2.306   2.276
 4120WAT      O12901   2.885   2.628   2.828
 4120WAT     H112902   2.900   2.649   2.924
 4120WAT     H212903   2.855   2.533   2.819
 4121WAT      O12904   2.212   2.760   3.666
 4121WAT     H112905   2.288   2.804   3.714
 4121WAT     H212906   2.247   2.713   3.584
 4122WAT      O12907   3.402   2.136   1.987
 4122WAT     H112908   3.341   2.061   2.010
 4122WAT     H212909   3.424   2.188   2.070
 4123WAT      O12910   3.165   2.700   1.904
 4123WAT     H112911   3.199   2.607   1.919
 4123WAT     H212912   3.183   2.727   1.809
 4124WAT      O12913   2.930   3.195   2.711
 4124WAT     H112914   2.937   3.111   2.656
 4124WAT     H212915   2.992   3.264   2.675
 4125WAT      O12916   2.181   2.672   2.811
 4125WAT     H112917   2.274   2.708   2.816
 4125WAT     H212918   2.175   2.587   2.863
 4126WAT      O12919   2.201   2.371   2.868
 4126WAT     H112920   2.149   2.288   2.851
 4126WAT     H212921   2.278   2.376   2.804
 4127WAT      O12922   3.000   2.242   3.540
 4127WAT     H112923   2.955   2.305   3.604
 4127WAT     H212924   3.093   2.273   3.523
 4128WAT      O12925   3.022   2.069   3.339
 4128WAT     H112926   3.022   2.133   3.416
 4128WAT     H212927   3.050   2.117   3.256
 4129WAT      O12928   1.870   3.188   2.062
 4129WAT     H112929   1.777   3.209   2.031
 4129WAT     H212930   1.880   3.089   2.075
 4130WAT      O12931   1.950   3.663   2.789
 4130WAT     H112932   1.908   3.577   2.762
 4130WAT     H212933   2.044   3.666   2.755
 4131WAT      O12934   2.366   3.430   2.772
 4131WAT     H112935   2.432   3.504   2.781
 4131WAT     H212936   2.410   3.351   2.730
 4132WAT      O12937   2.864   2.658   3.100
 4132WAT     H112938   2.905   2.626   3.186
 4132WAT     H212939   2.768   2.631   3.097
 4133WAT      O12940   1.902   2.406   2.976
 4133WAT     H112941   1.987   2.373   2.935
 4133WAT     H212942   1.915   2.421   3.074
 4134WAT      O12943   2.051   2.382   3.584
 4134WAT     H112944   2.110   2.342   3.514
 4134WAT     H212945   1.993   2.453   3.543
 4135WAT      O12946   3.231   2.812   3.522
 4135WAT     H112947   3.270   2.901   3.542
 4135WAT     H212948   3.241   2.792   3.425
 4136WAT      O12949   2.677   2.434   2.187
 4136WAT     H112950   2.684   2.345   2.141
 4136WAT     H212951   2.583   2.468   2.179
 4137WAT      O12952   2.533   2.326   3.131
 4137WAT     H112953   2.499   2.237   3.101
 4137WAT     H212954   2.559   2.380   3.051
 4138WAT      O12955   2.335   2.362   2.053
 4138WAT     H112956   2.396   2.442   2.057
 4138WAT     H212957   2.240   2.393   2.060
 4139WAT      O12958   3.209   2.921   3.096
 4139WAT     H112959   3.233   2.858   3.022
 4139WAT     H212960   3.119   2.961   3.078
 4140WAT      O12961   3.164   2.717   2.171
 4140WAT     H112962   3.078   2.686   2.213
 4140WAT     H212963   3.160   2.703   2.072
 4141WAT      O12964   3.114   3.593   2.990
 4141WAT     H112965   3.198   3.598   2.936
 4141WAT     H212966   3.091   3.497   3.008
 4142WAT      O12967   1.945   3.120   2.884
 4142WAT     H112968   1.940   3.119   2.984
 4142WAT     H212969   1.862   3.079   2.846
 4143WAT      O12970   3.588   1.997   2.385
 4143WAT     H112971   3.661   1.980   2.318
 4143WAT     H212972   3.557   1.910   2.423
 4144WAT      O12973   3.250   3.435   2.339
 4144WAT     H112974   3.317   3.447   2.265
 4144WAT     H212975   3.210   3.524   2.362
 4145WAT      O12976   1.992   3.656   3.713
 4145WAT     H112977   1.951   3.582   3.766
 4145WAT     H212978   2.056   3.707   3.771
 4146WAT      O12979   3.142   2.789   2.534
 4146WAT     H112980   3.202   2.708   2.536
 4146WAT     H212981   3.182   2.858   2.474
 4147WAT      O12982   2.692   3.135   3.284
 4147WAT     H112983   2.687   3.168   3.379
 4147WAT     H212984   2.606   3.154   3.238
 4148WAT      O12985   2.534   3.478   2.016
 4148WAT     H112986   2.543   3.488   1.917
 4148WAT     H212987   2.494   3.389   2.037
 4149WAT      O12988   3.703   2.037   2.825
 4149WAT     H112989   3.742   1.952   2.789
 4149WAT     H212990   3.605   2.039   2.806
 4150WAT      O12991   2.125   2.188   2.582
 4150WAT     H112992   2.046   2.239   2.548
 4150WAT     H212993   2.116   2.173   2.680
 4151WAT      O12994   3.056   3.474   1.893
 4151WAT     H112995   3.062   3.381   1.930
 4151WAT     H212996   2.997   3.474   1.813
 4152WAT      O12997   2.684   2.864   3.234
 4152WAT     H112998   2.724   2.863   3.142
 4152WAT     H212999   2.694   2.956   3.274
 4153WAT      O13000   2.778   2.772   2.153
 4153WAT     H113001   2.841   2.810   2.085
 4153WAT     H213002   2.818   2.689   2.192
 4154WAT      O13003   3.366   3.469   1.906
 4154WAT     H113004   3.274   3.506   1.913
 4154WAT     H213005   3.404   3.489   1.816
 4155WAT      O13006   2.901   2.960   2.558
 4155WAT     H113007   2.831   2.913   2.612
 4155WAT     H213008   2.960   2.892   2.515
 4156WAT      O13009   2.876   2.098   2.833
 4156WAT     H113010   2.868   2.062   2.740
 4156WAT     H213011   2.874   2.022   2.898
 4157WAT      O13012   2.452   3.349   2.353
 4157WAT     H113013   2.494   3.291   2.283
 4157WAT     H213014   2.408   3.428   2.309
 4158WAT      O13015   2.117   3.210   2.152
 4158WAT     H113016   2.021   3.211   2.125
 4158WAT     H213017   2.129   3.263   2.236
 4159WAT      O13018   1.967   2.875   3.588
 4159WAT     H113019   1.890   2.842   3.642
 4159WAT     H213020   2.052   2.845   3.630
 4160WAT      O13021   2.534   2.065   3.351
 4160WAT     H113022   2.624   2.049   3.311
 4160WAT     H213023   2.542   2.070   3.450
 4161WAT      O13024   1.937   2.207   1.895
 4161WAT     H113025   1.845   2.179   1.866
 4161WAT     H213026   1.968   2.284   1.839
 4162WAT      O13027   1.934   2.028   2.180
 4162WAT     H113028   1.917   2.111   2.126
 4162WAT     H213029   2.024   1.991   2.158
 4163WAT      O13030   3.045   3.197   1.981
 4163WAT     H113031   2.946   3.186   1.983
 4163WAT     H213032   3.079   3.212   2.074
 4164WAT      O13033   2.475   2.704   3.293
 4164WAT     H113034   2.531   2.785   3.276
 4164WAT     H213035   2.534   2.624   3.296
 4165WAT      O13036   2.578   2.427   3.570
 4165WAT     H113037   2.597   2.492   3.644
 4165WAT     H213038   2.638   2.347   3.579
 4166WAT      O13039   3.087   2.187   2.311
 4166WAT     H113040   3.152   2.113   2.300
 4166WAT     H213041   3.107   2.237   2.395
 4167WAT      O13042   2.456   2.607   2.514
 4167WAT     H113043   2.506   2.692   2.495
 4167WAT     H213044   2.368   2.609   2.466
 4168WAT      O13045   3.639   2.204   3.504
 4168WAT     H113046   3.622   2.235   3.410
 4168WAT     H213047   3.555   2.167   3.542
 4169WAT      O13048   2.721   3.236   1.878
 4169WAT     H113049   2.675   3.251   1.966
 4169WAT     H213050   2.765   3.321   1.848
 4170WAT      O13051   2.523   3.652   2.815
 4170WAT     H113052   2.477   3.740   2.802
 4170WAT     H213053   2.622   3.664   2.808
 4171WAT      O13054   2.721   2.818   2.723
 4171WAT     H113055   2.775   2.749   2.771
 4171WAT     H213056   2.689   2.887   2.789
 4172WAT      O13057   2.945   2.846   1.949
 4172WAT     H113058   2.922   2.899   1.867
 4172WAT     H213059   3.026   2.790   1.930
 4173WAT      O13060   3.723   3.431   2.713
 4173WAT     H113061   3.652   3.419   2.643
 4173WAT     H213062   3.724   3.352   2.773
 4174WAT      O13063   2.083   3.176   3.706
 4174WAT     H113064   2.018   3.103   3.685
 4174WAT     H213065   2.087   3.190   3.804
 4175WAT      O13066   1.941   3.102   2.515
 4175WAT     H113067   1.940   3.055   2.603
 4175WAT     H213068   2.023   3.074   2.464
 4176WAT      O13069   3.686   2.054   3.089
 4176WAT     H113070   3.682   1.964   3.133
 4176WAT     H213071   3.689   2.043   2.990
 4177WAT      O13072   2.290   2.286   2.382
 4177WAT     H113073   2.320   2.214   2.320
 4177WAT     H213074   2.251   2.246   2.465
 4178WAT      O13075   2.179   2.409   3.142
 4178WAT     H113076   2.217   2.350   3.214
 4178WAT     H213077   2.219   2.383   3.054
 4179WAT      O13078   2.674   3.448   2.549
 4179WAT     H113079   2.706   3.458   2.455
 4179WAT     H213080   2.595   3.386   2.551
 4180WAT      O13081   3.286   2.076   2.974
 4180WAT     H113082   3.338   2.011   3.029
 4180WAT     H213083   3.237   2.139   3.035
 4181WAT      O13084   2.863   1.896   3.016
 4181WAT     H113085   2.800   1.824   2.985
 4181WAT     H213086   2.956   1.860   3.016
 4182WAT      O13087   2.632   3.192   2.163
 4182WAT     H113088   2.586   3.105   2.180
 4182WAT     H213089   2.723   3.189   2.204
 4183WAT      O13090   2.480   3.429   3.146
 4183WAT     H113091   2.475   3.511   3.203
 4183WAT     H213092   2.569   3.426   3.101
 4184WAT      O13093   3.214   1.914   2.030
 4184WAT     H113094   3.249   1.873   1.946
 4184WAT     H213095   3.124   1.876   2.050
 4185WAT      O13096   3.162   2.315   2.553
 4185WAT     H113097   3.103   2.395   2.557
 4185WAT     H213098   3.177   2.280   2.646
 4186WAT      O13099   1.901   2.939   2.162
 4186WAT     H113100   2.000   2.928   2.153
 4186WAT     H213101   1.861   2.853   2.194
 4187WAT      O13102   2.737   3.508   2.199
 4187WAT     H113103   2.660   3.473   2.145
 4187WAT     H213104   2.705   3.579   2.261
 4188WAT      O13105   2.092   2.490   3.837
 4188WAT     H113106   1.999   2.488   3.874
 4188WAT     H213107   2.093   2.451   3.745
 4189WAT      O13108   2.087   2.137   4.720
 4189WAT     H113109   2.122   2.120   4.812
 4189WAT     H213110   1.999   2.092   4.708
 4190WAT      O13111   1.881   2.230   4.371
 4190WAT     H113112   1.799   2.273   4.410
 4190WAT     H213113   1.853   2.157   4.308
 4191WAT      O13114   2.431   3.137   4.889
 4191WAT     H113115   2.338   3.130   4.852
 4191WAT     H213116   2.442   3.226   4.933
 4192WAT      O13117   3.417   3.373   4.427
 4192WAT     H113118   3.360   3.357   4.508
 4192WAT     H213119   3.358   3.383   4.347
 4193WAT      O13120   2.997   2.565   4.441
 4193WAT     H113121   3.054   2.643   4.416
 4193WAT     H213122   2.937   2.591   4.517
 4194WAT      O13123   2.630   3.006   4.747
 4194WAT     H113124   2.552   3.023   4.807
 4194WAT     H213125   2.664   3.093   4.711
 4195WAT      O13126   2.712   2.660   5.547
 4195WAT     H113127   2.708   2.736   5.612
 4195WAT     H213128   2.734   2.696   5.456
 4196WAT      O13129   2.547   2.874   4.389
 4196WAT     H113130   2.616   2.858   4.459
 4196WAT     H213131   2.474   2.931   4.427
 4197WAT      O13132   2.548   3.023   5.527
 4197WAT     H113133   2.608   3.102   5.541
 4197WAT     H213134   2.462   3.054   5.486
 4198WAT      O13135   2.197   3.297   4.785
 4198WAT     H113136   2.119   3.266   4.732
 4198WAT     H213137   2.255   3.355   4.728
 4199WAT      O13138   3.322   3.367   5.063
 4199WAT     H113139   3.346   3.461   5.089
 4199WAT     H213140   3.306   3.313   5.145
 4200WAT      O13141   2.300   2.254   5.223
 4200WAT     H113142   2.382   2.198   5.232
 4200WAT     H213143   2.219   2.196   5.227
 4201WAT      O13144   2.093   3.575   4.207
 4201WAT     H113145   2.127   3.652   4.261
 4201WAT     H213146   2.137   3.575   4.117
 4202WAT      O13147   2.989   3.203   5.414
 4202WAT     H113148   3.036   3.203   5.502
 4202WAT     H213149   2.941   3.116   5.403
 4203WAT      O13150   2.092   3.296   4.262
 4203WAT     H113151   2.066   3.392   4.262
 4203WAT     H213152   2.021   3.242   4.307
 4204WAT      O13153   2.102   2.953   4.610
 4204WAT     H113154   2.116   2.869   4.662
 4204WAT     H213155   2.047   3.017   4.665
 4205WAT      O13156   2.482   3.648   5.163
 4205WAT     H113157   2.390   3.631   5.198
 4205WAT     H213158   2.510   3.740   5.189
 4206WAT      O13159   2.468   2.826   3.847
 4206WAT     H113160   2.475   2.910   3.793
 4206WAT     H213161   2.514   2.839   3.935
 4207WAT      O13162   3.456   1.976   5.204
 4207WAT     H113163   3.438   2.043   5.132
 4207WAT     H213164   3.453   2.022   5.293
 4208WAT      O13165   1.984   2.505   4.287
 4208WAT     H113166   1.939   2.417   4.304
 4208WAT     H213167   1.983   2.559   4.371
 4209WAT      O13168   3.704   3.629   4.083
 4209WAT     H113169   3.758   3.600   4.163
 4209WAT     H213170   3.734   3.719   4.054
 4210WAT      O13171   1.889   3.458   3.841
 4210WAT     H113172   1.870   3.362   3.862
 4210WAT     H213173   1.856   3.516   3.916
 4211WAT      O13174   1.975   2.599   5.321
 4211WAT     H113175   2.063   2.586   5.366
 4211WAT     H213176   1.962   2.696   5.299
 4212WAT      O13177   3.155   3.090   5.147
 4212WAT     H113178   3.192   3.017   5.089
 4212WAT     H213179   3.207   3.095   5.232
 4213WAT      O13180   2.671   1.866   4.226
 4213WAT     H113181   2.711   1.957   4.217
 4213WAT     H213182   2.571   1.874   4.232
 4214WAT      O13183   2.059   2.838   4.988
 4214WAT     H113184   2.148   2.793   4.974
 4214WAT     H213185   1.986   2.773   4.969
 4215WAT      O13186   3.049   3.654   5.340
 4215WAT     H113187   3.073   3.714   5.264
 4215WAT     H213188   3.056   3.559   5.310
 4216WAT      O13189   2.179   2.113   5.525
 4216WAT     H113190   2.250   2.184   5.531
 4216WAT     H213191   2.091   2.152   5.553
 4217WAT      O13192   3.328   3.279   4.677
 4217WAT     H113193   3.269   3.285   4.757
 4217WAT     H213194   3.313   3.191   4.631
 4218WAT      O13195   3.529   3.576   4.296
 4218WAT     H113196   3.488   3.553   4.208
 4218WAT     H213197   3.511   3.502   4.361
 4219WAT      O13198   2.460   2.591   3.994
 4219WAT     H113199   2.484   2.660   3.926
 4219WAT     H213200   2.382   2.624   4.048
 4220WAT      O13201   3.143   2.207   4.668
 4220WAT     H113202   3.057   2.157   4.655
 4220WAT     H213203   3.205   2.153   4.724
 4221WAT      O13204   2.669   2.467   5.189
 4221WAT     H113205   2.622   2.464   5.278
 4221WAT     H213206   2.618   2.412   5.123
 4222WAT      O13207   3.256   2.331   5.398
 4222WAT     H113208   3.236   2.374   5.486
 4222WAT     H213209   3.334   2.269   5.407
 4223WAT      O13210   2.835   2.752   5.296
 4223WAT     H113211   2.881   2.668   5.267
 4223WAT     H213212   2.779   2.786   5.221
 4224WAT      O13213   2.853   2.272   4.966
 4224WAT     H113214   2.776   2.306   5.020
 4224WAT     H213215   2.819   2.221   4.887
 4225WAT      O13216   2.903   2.563   4.153
 4225WAT     H113217   2.929   2.559   4.249
 4225WAT     H213218   2.818   2.512   4.139
 4226WAT      O13219   1.938   2.673   4.513
 4226WAT     H113220   2.037   2.661   4.522
 4226WAT     H213221   1.914   2.768   4.534
 4227WAT      O13222   1.992   3.683   5.295
 4227WAT     H113223   1.982   3.668   5.394
 4227WAT     H213224   1.906   3.719   5.259
 4228WAT      O13225   2.727   2.210   3.919
 4228WAT     H113226   2.786   2.273   3.870
 4228WAT     H213227   2.746   2.116   3.890
 4229WAT      O13228   3.581   2.447   5.555
 4229WAT     H113229   3.555   2.536   5.519
 4229WAT     H213230   3.579   2.379   5.482
 4230WAT      O13231   2.412   2.058   4.609
 4230WAT     H113232   2.407   2.053   4.709
 4230WAT     H213233   2.414   2.154   4.580
 4231WAT      O13234   2.213   3.663   4.577
 4231WAT     H113235   2.263   3.577   4.583
 4231WAT     H213236   2.278   3.740   4.574
 4232WAT      O13237   3.657   2.928   4.597
 4232WAT     H113238   3.595   2.913   4.521
 4232WAT     H213239   3.605   2.939   4.682
 4233WAT      O13240   3.089   3.412   5.230
 4233WAT     H113241   3.095   3.335   5.294
 4233WAT     H213242   3.037   3.386   5.150
 4234WAT      O13243   2.183   2.805   3.966
 4234WAT     H113244   2.265   2.844   3.924
 4234WAT     H213245   2.156   2.723   3.917
 4235WAT      O13246   3.320   2.597   4.452
 4235WAT     H113247   3.315   2.532   4.527
 4235WAT     H213248   3.400   2.656   4.465
 4236WAT      O13249   2.323   3.128   5.451
 4236WAT     H113250   2.273   3.129   5.365
 4236WAT     H213251   2.260   3.110   5.527
 4237WAT      O13252   2.064   2.147   5.222
 4237WAT     H113253   1.984   2.207   5.209
 4237WAT     H213254   2.054   2.098   5.308
 4238WAT      O13255   3.494   3.239   3.805
 4238WAT     H113256   3.462   3.333   3.795
 4238WAT     H213257   3.418   3.176   3.793
 4239WAT      O13258   2.326   3.605   4.047
 4239WAT     H113259   2.359   3.644   4.133
 4239WAT     H213260   2.402   3.598   3.982
 4240WAT      O13261   3.262   1.969   4.150
 4240WAT     H113262   3.238   1.932   4.060
 4240WAT     H213263   3.361   1.985   4.154
 4241WAT      O13264   2.111   3.647   4.965
 4241WAT     H113265   2.168   3.582   5.015
 4241WAT     H213266   2.095   3.614   4.872
 4242WAT      O13267   2.802   3.560   4.628
 4242WAT     H113268   2.882   3.503   4.649
 4242WAT     H213269   2.753   3.520   4.551
 4243WAT      O13270   2.244   2.562   4.204
 4243WAT     H113271   2.289   2.472   4.201
 4243WAT     H213272   2.150   2.551   4.237
 4244WAT      O13273   3.409   2.084   5.453
 4244WAT     H113274   3.404   2.121   5.545
 4244WAT     H213275   3.337   2.015   5.441
 4245WAT      O13276   2.476   1.984   3.841
 4245WAT     H113277   2.574   1.962   3.848
 4245WAT     H213278   2.445   1.967   3.748
 4246WAT      O13279   2.643   2.126   5.473
 4246WAT     H113280   2.710   2.065   5.516
 4246WAT     H213281   2.570   2.145   5.538
 4247WAT      O13282   2.750   3.376   4.919
 4247WAT     H113283   2.727   3.351   4.825
 4247WAT     H213284   2.811   3.307   4.958
 4248WAT      O13285   3.213   2.452   5.157
 4248WAT     H113286   3.241   2.409   5.242
 4248WAT     H213287   3.238   2.548   5.158
 4249WAT      O13288   2.665   3.264   4.648
 4249WAT     H113289   2.755   3.278   4.606
 4249WAT     H213290   2.594   3.266   4.577
 4250WAT      O13291   2.784   2.365   4.623
 4250WAT     H113292   2.759   2.356   4.527
 4250WAT     H213293   2.832   2.283   4.654
 4251WAT      O13294   2.401   1.926   4.236
 4251WAT     H113295   2.320   1.927   4.294
 4251WAT     H213296   2.404   2.009   4.181
 4252WAT      O13297   2.159   1.897   3.895
 4252WAT     H113298   2.208   1.981   3.874
 4252WAT     H213299   2.221   1.832   3.940
 4253WAT      O13300   2.797   2.098   4.204
 4253WAT     H113301   2.749   2.139   4.126
 4253WAT     H213302   2.896   2.096   4.185
 4254WAT      O13303   2.938   2.545   5.188
 4254WAT     H113304   2.858   2.484   5.191
 4254WAT     H213305   3.019   2.492   5.164
 4255WAT      O13306   3.089   3.432   4.517
 4255WAT     H113307   3.110   3.506   4.452
 4255WAT     H213308   3.157   3.432   4.590
 4256WAT      O13309   2.321   3.014   4.465
 4256WAT     H113310   2.250   2.987   4.530
 4256WAT     H213311   2.295   2.986   4.372
 4257WAT      O13312   2.894   2.411   3.740
 4257WAT     H113313   2.853   2.493   3.701
 4257WAT     H213314   2.958   2.437   3.813
 4258WAT      O13315   1.940   2.418   5.110
 4258WAT     H113316   2.032   2.417   5.069
 4258WAT     H213317   1.934   2.492   5.177
 4259WAT      O13318   2.423   2.084   4.871
 4259WAT     H113319   2.461   2.000   4.908
 4259WAT     H213320   2.335   2.103   4.915
 4260WAT      O13321   2.728   2.316   4.366
 4260WAT     H113322   2.696   2.388   4.304
 4260WAT     H213323   2.752   2.235   4.313
 4261WAT      O13324   2.879   1.901   4.477
 4261WAT     H113325   2.807   1.906   4.408
 4261WAT     H213326   2.855   1.832   4.546
 4262WAT      O13327   3.291   3.035   4.591
 4262WAT     H113328   3.236   2.951   4.584
 4262WAT     H213329   3.317   3.064   4.499
 4263WAT      O13330   2.350   3.247   3.898
 4263WAT     H113331   2.263   3.232   3.945
 4263WAT     H213332   2.333   3.273   3.803
 4264WAT      O13333   3.526   3.142   4.381
 4264WAT     H113334   3.625   3.150   4.395
 4264WAT     H213335   3.481   3.226   4.412
 4265WAT      O13336   3.252   2.437   3.802
 4265WAT     H113337   3.198   2.416   3.883
 4265WAT     H213338   3.343   2.396   3.811
 4266WAT      O13339   2.389   2.118   4.052
 4266WAT     H113340   2.416   2.059   3.977
 4266WAT     H213341   2.389   2.213   4.021
 4267WAT      O13342   3.616   3.085   5.312
 4267WAT     H113343   3.707   3.046   5.299
 4267WAT     H213344   3.624   3.181   5.336
 4268WAT      O13345   2.926   3.209   5.064
 4268WAT     H113346   2.846   3.186   5.119
 4268WAT     H213347   3.009   3.183   5.113
 4269WAT      O13348   3.454   3.491   5.349
 4269WAT     H113349   3.481   3.525   5.259
 4269WAT     H213350   3.533   3.453   5.395
 4270WAT      O13351   2.973   3.057   4.824
 4270WAT     H113352   2.933   3.101   4.905
 4270WAT     H213353   2.932   3.094   4.741
 4271WAT      O13354   3.500   2.961   4.803
 4271WAT     H113355   3.505   3.042   4.862
 4271WAT     H213356   3.414   2.963   4.752
 4272WAT      O13357   2.777   1.951   5.126
 4272WAT     H113358   2.802   1.931   5.031
 4272WAT     H213359   2.849   2.007   5.168
 4273WAT      O13360   2.842   2.978   5.443
 4273WAT     H113361   2.743   2.984   5.453
 4273WAT     H213362   2.865   2.898   5.387
 4274WAT      O13363   2.272   2.675   4.975
 4274WAT     H113364   2.358   2.687   5.025
 4274WAT     H213365   2.230   2.588   5.002
 4275WAT      O13366   3.136   2.248   4.986
 4275WAT     H113367   3.157   2.322   5.050
 4275WAT     H213368   3.047   2.265   4.943
 4276WAT      O13369   1.926   3.426   5.055
 4276WAT     H113370   1.880   3.508   5.021
 4276WAT     H213371   2.024   3.445   5.064
 4277WAT      O13372   2.229   2.962   4.225
 4277WAT     H113373   2.222   3.045   4.169
 4277WAT     H213374   2.233   2.882   4.165
 4278WAT      O13375   2.428   2.399   4.589
 4278WAT     H113376   2.440   2.465   4.515
 4278WAT     H213377   2.474   2.433   4.672
 4279WAT      O13378   3.134   3.307   4.866
 4279WAT     H113379   3.181   3.320   4.953
 4279WAT     H213380   3.068   3.233   4.875
 4280WAT      O13381   2.216   3.372   5.053
 4280WAT     H113382   2.195   3.328   4.966
 4280WAT     H213383   2.313   3.398   5.056
 4281WAT      O13384   2.264   2.613   5.322
 4281WAT     H113385   2.332   2.668   5.275
 4281WAT     H213386   2.304   2.525   5.349
 4282WAT      O13387   3.449   2.641   5.394
 4282WAT     H113388   3.357   2.679   5.389
 4282WAT     H213389   3.509   2.688   5.329
 4283WAT      O13390   2.875   1.967   5.494
 4283WAT     H113391   2.881   2.052   5.442
 4283WAT     H213392   2.907   1.891   5.437
 4284WAT      O13393   2.366   1.912   5.464
 4284WAT     H113394   2.324   1.855   5.394
 4284WAT     H213395   2.300   1.981   5.496
 4285WAT      O13396   2.435   2.732   4.753
 4285WAT     H113397   2.479   2.821   4.744
 4285WAT     H213398   2.372   2.732   4.830
 4286WAT      O13399   3.222   2.724   4.769
 4286WAT     H113400   3.147   2.724   4.703
 4286WAT     H213401   3.259   2.632   4.778
 4287WAT      O13402   3.071   2.387   3.999
 4287WAT     H113403   3.084   2.303   4.053
 4287WAT     H213404   3.042   2.461   4.059
 4288WAT      O13405   2.169   2.075   4.955
 4288WAT     H113406   2.146   2.112   5.045
 4288WAT     H213407   2.139   1.980   4.949
 4289WAT      O13408   1.899   3.172   5.006
 4289WAT     H113409   1.952   3.123   5.074
 4289WAT     H213410   1.921   3.270   5.011
 4290WAT      O13411   2.594   2.496   4.788
 4290WAT     H113412   2.653   2.470   4.712
 4290WAT     H213413   2.566   2.592   4.777
 4291WAT      O13414   3.590   2.797   5.578
 4291WAT     H113415   3.544   2.790   5.489
 4291WAT     H213416   3.528   2.841   5.644
 4292WAT      O13417   2.169   1.925   4.342
 4292WAT     H113418   2.158   2.019   4.375
 4292WAT     H213419   2.164   1.862   4.419
 4293WAT      O13420   3.484   2.229   4.098
 4293WAT     H113421   3.486   2.153   4.162
 4293WAT     H213422   3.436   2.306   4.138
 4294WAT      O13423   2.885   2.628   4.690
 4294WAT     H113424   2.900   2.649   4.786
 4294WAT     H213425   2.855   2.533   4.681
 4295WAT      O13426   2.842   3.435   5.424
 4295WAT     H113427   2.822   3.479   5.336
 4295WAT     H213428   2.881   3.344   5.408
 4296WAT      O13429   3.721   3.380   5.329
 4296WAT     H113430   3.735   3.407   5.234
 4296WAT     H213431   3.804   3.402   5.382
 4297WAT      O13432   2.212   2.760   5.528
 4297WAT     H113433   2.288   2.804   5.576
 4297WAT     H213434   2.247   2.713   5.446
 4298WAT      O13435   3.402   2.136   3.849
 4298WAT     H113436   3.341   2.061   3.872
 4298WAT     H213437   3.424   2.188   3.932
 4299WAT      O13438   3.165   2.700   3.766
 4299WAT     H113439   3.199   2.607   3.781
 4299WAT     H213440   3.183   2.727   3.671
 4300WAT      O13441   2.930   3.195   4.573
 4300WAT     H113442   2.937   3.111   4.518
 4300WAT     H213443   2.992   3.264   4.537
 4301WAT      O13444   2.181   2.672   4.673
 4301WAT     H113445   2.274   2.708   4.678
 4301WAT     H213446   2.175   2.587   4.725
 4302WAT      O13447   2.201   2.371   4.730
 4302WAT     H113448   2.149   2.288   4.713
 4302WAT     H213449   2.278   2.376   4.666
 4303WAT      O13450   3.000   2.242   5.402
 4303WAT     H113451   2.955   2.305   5.466
 4303WAT     H213452   3.093   2.273   5.385
 4304WAT      O13453   3.022   2.069   5.201
 4304WAT     H113454   3.022   2.133   5.278
 4304WAT     H213455   3.050   2.117   5.118
 4305WAT      O13456   1.870   3.188   3.924
 4305WAT     H113457   1.777   3.209   3.893
 4305WAT     H213458   1.880   3.089   3.937
 4306WAT      O13459   1.950   3.663   4.651
 4306WAT     H113460   1.908   3.577   4.624
 4306WAT     H213461   2.044   3.666   4.617
 4307WAT      O13462   2.366   3.430   4.634
 4307WAT     H113463   2.432   3.504   4.643
 4307WAT     H213464   2.410   3.351   4.592
 4308WAT      O13465   2.864   2.658   4.962
 4308WAT     H113466   2.905   2.626   5.048
 4308WAT     H213467   2.768   2.631   4.959
 4309WAT      O13468   1.902   2.406   4.838
 4309WAT     H113469   1.987   2.373   4.797
 4309WAT     H213470   1.915   2.421   4.936
 4310WAT      O13471   2.051   2.382   5.446
 4310WAT     H113472   2.110   2.342   5.376
 4310WAT     H213473   1.993   2.453   5.405
 4311WAT      O13474   3.231   2.812   5.384
 4311WAT     H113475   3.270   2.901   5.404
 4311WAT     H213476   3.241   2.792   5.287
 4312WAT      O13477   2.677   2.434   4.049
 4312WAT     H113478   2.684   2.345   4.003
 4312WAT     H213479   2.583   2.468   4.041
 4313WAT      O13480   2.114   3.426   5.468
 4313WAT     H113481   2.084   3.483   5.544
 4313WAT     H213482   2.107   3.329   5.494
 4314WAT      O13483   2.533   2.326   4.993
 4314WAT     H113484   2.499   2.237   4.963
 4314WAT     H213485   2.559   2.380   4.913
 4315WAT      O13486   2.792   3.540   5.189
 4315WAT     H113487   2.768   3.522   5.094
 4315WAT     H213488   2.822   3.634   5.199
 4316WAT      O13489   2.335   2.362   3.915
 4316WAT     H113490   2.396   2.442   3.919
 4316WAT     H213491   2.240   2.393   3.922
 4317WAT      O13492   2.021   2.999   5.190
 4317WAT     H113493   2.043   2.938   5.266
 4317WAT     H213494   2.031   2.950   5.104
 4318WAT      O13495   3.209   2.921   4.958
 4318WAT     H113496   3.233   2.858   4.884
 4318WAT     H213497   3.119   2.961   4.940
 4319WAT      O13498   3.621   3.609   4.878
 4319WAT     H113499   3.682   3.639   4.805
 4319WAT     H213500   3.583   3.520   4.856
 4320WAT      O13501   3.114   3.593   4.852
 4320WAT     H113502   3.198   3.598   4.798
 4320WAT     H213503   3.091   3.497   4.870
 4321WAT      O13504   1.945   3.120   4.746
 4321WAT     H113505   1.940   3.119   4.846
 4321WAT     H213506   1.862   3.079   4.708
 4322WAT      O13507   2.550   3.524   5.440
 4322WAT     H113508   2.494   3.605   5.449
 4322WAT     H213509   2.602   3.528   5.354
 4323WAT      O13510   3.588   1.997   4.247
 4323WAT     H113511   3.661   1.980   4.180
 4323WAT     H213512   3.557   1.910   4.285
 4324WAT      O13513   1.992   3.656   5.575
 4324WAT     H113514   1.951   3.582   5.628
 4324WAT     H213515   2.056   3.707   5.633
 4325WAT      O13516   3.142   2.789   4.396
 4325WAT     H113517   3.202   2.708   4.398
 4325WAT     H213518   3.182   2.858   4.336
 4326WAT      O13519   2.692   3.135   5.146
 4326WAT     H113520   2.687   3.168   5.241
 4326WAT     H213521   2.606   3.154   5.100
 4327WAT      O13522   2.534   3.478   3.878
 4327WAT     H113523   2.543   3.488   3.779
 4327WAT     H213524   2.494   3.389   3.899
 4328WAT      O13525   3.512   3.582   5.118
 4328WAT     H113526   3.565   3.592   5.034
 4328WAT     H213527   3.485   3.672   5.152
 4329WAT      O13528   3.703   2.037   4.687
 4329WAT     H113529   3.742   1.952   4.651
 4329WAT     H213530   3.605   2.039   4.668
 4330WAT      O13531   2.125   2.188   4.444
 4330WAT     H113532   2.046   2.239   4.410
 4330WAT     H213533   2.116   2.173   4.542
 4331WAT      O13534   2.684   2.864   5.096
 4331WAT     H113535   2.724   2.863   5.004
 4331WAT     H213536   2.694   2.956   5.136
 4332WAT      O13537   2.778   2.772   4.015
 4332WAT     H113538   2.841   2.810   3.947
 4332WAT     H213539   2.818   2.689   4.054
 4333WAT      O13540   2.234   3.150   5.214
 4333WAT     H113541   2.221   3.243   5.180
 4333WAT     H213542   2.150   3.098   5.201
 4334WAT      O13543   3.476   3.154   5.013
 4334WAT     H113544   3.536   3.157   5.093
 4334WAT     H213545   3.401   3.218   5.026
 4335WAT      O13546   2.901   2.960   4.420
 4335WAT     H113547   2.831   2.913   4.474
 4335WAT     H213548   2.960   2.892   4.377
 4336WAT      O13549   2.876   2.098   4.695
 4336WAT     H113550   2.868   2.062   4.602
 4336WAT     H213551   2.874   2.022   4.760
 4337WAT      O13552   3.571   2.247   5.105
 4337WAT     H113553   3.644   2.316   5.109
 4337WAT     H213554   3.599   2.172   5.046
 4338WAT      O13555   2.117   3.210   4.014
 4338WAT     H113556   2.021   3.211   3.987
 4338WAT     H213557   2.129   3.263   4.098
 4339WAT      O13558   1.967   2.875   5.450
 4339WAT     H113559   1.890   2.842   5.504
 4339WAT     H213560   2.052   2.845   5.492
 4340WAT      O13561   2.534   2.065   5.213
 4340WAT     H113562   2.624   2.049   5.173
 4340WAT     H213563   2.542   2.070   5.312
 4341WAT      O13564   1.937   2.207   3.757
 4341WAT     H113565   1.845   2.179   3.728
 4341WAT     H213566   1.968   2.284   3.701
 4342WAT      O13567   3.302   2.718   5.122
 4342WAT     H113568   3.245   2.770   5.059
 4342WAT     H213569   3.398   2.730   5.098
 4343WAT      O13570   1.934   2.028   4.042
 4343WAT     H113571   1.917   2.111   3.988
 4343WAT     H213572   2.024   1.991   4.020
 4344WAT      O13573   2.475   2.704   5.155
 4344WAT     H113574   2.531   2.785   5.138
 4344WAT     H213575   2.534   2.624   5.158
 4345WAT      O13576   3.355   3.629   4.683
 4345WAT     H113577   3.388   3.693   4.614
 4345WAT     H213578   3.421   3.623   4.758
 4346WAT      O13579   2.578   2.427   5.432
 4346WAT     H113580   2.597   2.492   5.506
 4346WAT     H213581   2.638   2.347   5.441
 4347WAT      O13582   3.312   3.082   5.357
 4347WAT     H113583   3.303   3.072   5.456
 4347WAT     H213584   3.408   3.075   5.331
 4348WAT      O13585   2.252   3.603   5.284
 4348WAT     H113586   2.161   3.644   5.282
 4348WAT     H213587   2.245   3.509   5.316
 4349WAT      O13588   3.536   2.745   4.978
 4349WAT     H113589   3.509   2.656   4.941
 4349WAT     H213590   3.537   2.813   4.905
 4350WAT      O13591   3.087   2.187   4.173
 4350WAT     H113592   3.152   2.113   4.162
 4350WAT     H213593   3.107   2.237   4.257
 4351WAT      O13594   2.456   2.607   4.376
 4351WAT     H113595   2.506   2.692   4.357
 4351WAT     H213596   2.368   2.609   4.328
 4352WAT      O13597   3.639   2.204   5.366
 4352WAT     H113598   3.622   2.235   5.272
 4352WAT     H213599   3.555   2.167   5.404
 4353WAT      O13600   3.592   2.796   5.241
 4353WAT     H113601   3.630   2.887   5.256
 4353WAT     H213602   3.584   2.779   5.142
 4354WAT      O13603   2.523   3.652   4.677
 4354WAT     H113604   2.477   3.740   4.664
 4354WAT     H213605   2.622   3.664   4.670
 4355WAT      O13606   2.721   2.818   4.585
 4355WAT     H113607   2.775   2.749   4.633
 4355WAT     H213608   2.689   2.887   4.651
 4356WAT      O13609   2.945   2.846   3.811
 4356WAT     H113610   2.922   2.899   3.729
 4356WAT     H213611   3.026   2.790   3.792
 4357WAT      O13612   3.723   3.431   4.575
 4357WAT     H113613   3.652   3.419   4.505
 4357WAT     H213614   3.724   3.352   4.635
 4358WAT      O13615   2.083   3.176   5.568
 4358WAT     H113616   2.018   3.103   5.547
 4358WAT     H213617   2.087   3.190   5.666
 4359WAT      O13618   1.941   3.102   4.377
 4359WAT     H113619   1.940   3.055   4.465
 4359WAT     H213620   2.023   3.074   4.326
 4360WAT      O13621   2.534   3.253   5.348
 4360WAT     H113622   2.456   3.203   5.386
 4360WAT     H213623   2.531   3.348   5.379
 4361WAT      O13624   3.686   2.054   4.951
 4361WAT     H113625   3.682   1.964   4.995
 4361WAT     H213626   3.689   2.043   4.852
 4362WAT      O13627   2.290   2.286   4.244
 4362WAT     H113628   2.320   2.214   4.182
 4362WAT     H213629   2.251   2.246   4.327
 4363WAT      O13630   3.567   3.349   4.828
 4363WAT     H113631   3.474   3.324   4.801
 4363WAT     H213632   3.593   3.299   4.910
 4364WAT      O13633   2.179   2.409   5.004
 4364WAT     H113634   2.217   2.350   5.076
 4364WAT     H213635   2.219   2.383   4.916
 4365WAT      O13636   3.286   2.076   4.836
 4365WAT     H113637   3.338   2.011   4.891
 4365WAT     H213638   3.237   2.139   4.897
 4366WAT      O13639   2.863   1.896   4.878
 4366WAT     H113640   2.800   1.824   4.847
 4366WAT     H213641   2.956   1.860   4.878
 4367WAT      O13642   2.480   3.429   5.008
 4367WAT     H113643   2.475   3.511   5.065
 4367WAT     H213644   2.569   3.426   4.963
 4368WAT      O13645   3.214   1.914   3.892
 4368WAT     H113646   3.249   1.873   3.808
 4368WAT     H213647   3.124   1.876   3.912
 4369WAT      O13648   3.162   2.315   4.415
 4369WAT     H113649   3.103   2.395   4.419
 4369WAT     H213650   3.177   2.280   4.508
 4370WAT      O13651   1.901   2.939   4.024
 4370WAT     H113652   2.000   2.928   4.015
 4370WAT     H213653   1.861   2.853   4.056
 4371WAT      O13654   2.092   2.490   5.699
 4371WAT     H113655   1.999   2.488   5.736
 4371WAT     H213656   2.093   2.451   5.607
 4372WAT      O13657   2.087   2.137   6.582
 4372WAT     H113658   2.122   2.120   6.674
 4372WAT     H213659   1.999   2.092   6.570
 4373WAT      O13660   1.881   2.230   6.233
 4373WAT     H113661   1.799   2.273   6.272
 4373WAT     H213662   1.853   2.157   6.170
 4374WAT      O13663   2.431   3.137   6.751
 4374WAT     H113664   2.338   3.130   6.714
 4374WAT     H213665   2.442   3.226   6.795
 4375WAT      O13666   3.417   3.373   6.289
 4375WAT     H113667   3.360   3.357   6.370
 4375WAT     H213668   3.358   3.383   6.209
 4376WAT      O13669   2.997   2.565   6.303
 4376WAT     H113670   3.054   2.643   6.278
 4376WAT     H213671   2.937   2.591   6.379
 4377WAT      O13672   3.617   2.469   5.817
 4377WAT     H113673   3.605   2.456   5.718
 4377WAT     H213674   3.587   2.388   5.866
 4378WAT      O13675   2.630   3.006   6.609
 4378WAT     H113676   2.552   3.023   6.669
 4378WAT     H213677   2.664   3.093   6.573
 4379WAT      O13678   2.547   2.874   6.251
 4379WAT     H113679   2.616   2.858   6.321
 4379WAT     H213680   2.474   2.931   6.289
 4380WAT      O13681   2.197   3.297   6.647
 4380WAT     H113682   2.119   3.266   6.594
 4380WAT     H213683   2.255   3.355   6.590
 4381WAT      O13684   3.465   2.309   6.323
 4381WAT     H113685   3.391   2.355   6.273
 4381WAT     H213686   3.516   2.377   6.376
 4382WAT      O13687   2.093   3.575   6.069
 4382WAT     H113688   2.127   3.652   6.123
 4382WAT     H213689   2.137   3.575   5.979
 4383WAT      O13690   2.092   3.296   6.124
 4383WAT     H113691   2.066   3.392   6.124
 4383WAT     H213692   2.021   3.242   6.169
 4384WAT      O13693   2.102   2.953   6.472
 4384WAT     H113694   2.116   2.869   6.524
 4384WAT     H213695   2.047   3.017   6.527
 4385WAT      O13696   2.482   3.648   7.025
 4385WAT     H113697   2.390   3.631   7.060
 4385WAT     H213698   2.510   3.740   7.051
 4386WAT      O13699   2.468   2.826   5.709
 4386WAT     H113700   2.475   2.910   5.655
 4386WAT     H213701   2.514   2.839   5.797
 4387WAT      O13702   1.984   2.505   6.149
 4387WAT     H113703   1.939   2.417   6.166
 4387WAT     H213704   1.983   2.559   6.233
 4388WAT      O13705   3.704   3.629   5.945
 4388WAT     H113706   3.758   3.600   6.025
 4388WAT     H213707   3.734   3.719   5.916
 4389WAT      O13708   1.889   3.458   5.703
 4389WAT     H113709   1.870   3.362   5.724
 4389WAT     H213710   1.856   3.516   5.778
 4390WAT      O13711   3.551   2.784   6.198
 4390WAT     H113712   3.646   2.755   6.206
 4390WAT     H213713   3.543   2.849   6.123
 4391WAT      O13714   3.503   2.970   6.018
 4391WAT     H113715   3.589   2.972   5.966
 4391WAT     H213716   3.517   3.017   6.106
 4392WAT      O13717   2.475   3.227   6.312
 4392WAT     H113718   2.426   3.140   6.321
 4392WAT     H213719   2.452   3.270   6.225
 4393WAT      O13720   2.671   1.866   6.088
 4393WAT     H113721   2.711   1.957   6.079
 4393WAT     H213722   2.571   1.874   6.094
 4394WAT      O13723   2.059   2.838   6.850
 4394WAT     H113724   2.148   2.793   6.836
 4394WAT     H213725   1.986   2.773   6.831
 4395WAT      O13726   3.387   2.861   5.776
 4395WAT     H113727   3.324   2.785   5.789
 4395WAT     H213728   3.435   2.879   5.862
 4396WAT      O13729   3.328   3.279   6.539
 4396WAT     H113730   3.269   3.285   6.619
 4396WAT     H213731   3.313   3.191   6.493
 4397WAT      O13732   3.529   3.576   6.158
 4397WAT     H113733   3.488   3.553   6.070
 4397WAT     H213734   3.511   3.502   6.223
 4398WAT      O13735   2.460   2.591   5.856
 4398WAT     H113736   2.484   2.660   5.788
 4398WAT     H213737   2.382   2.624   5.910
 4399WAT      O13738   3.143   2.207   6.530
 4399WAT     H113739   3.057   2.157   6.517
 4399WAT     H213740   3.205   2.153   6.586
 4400WAT      O13741   3.438   3.524   5.893
 4400WAT     H113742   3.527   3.570   5.896
 4400WAT     H213743   3.417   3.500   5.798
 4401WAT      O13744   2.669   2.467   7.051
 4401WAT     H113745   2.622   2.464   7.140
 4401WAT     H213746   2.618   2.412   6.985
 4402WAT      O13747   2.853   2.272   6.828
 4402WAT     H113748   2.776   2.306   6.882
 4402WAT     H213749   2.819   2.221   6.749
 4403WAT      O13750   2.903   2.563   6.015
 4403WAT     H113751   2.929   2.559   6.111
 4403WAT     H213752   2.818   2.512   6.001
 4404WAT      O13753   1.938   2.673   6.375
 4404WAT     H113754   2.037   2.661   6.384
 4404WAT     H213755   1.914   2.768   6.396
 4405WAT      O13756   1.992   3.683   7.157
 4405WAT     H113757   1.982   3.668   7.256
 4405WAT     H213758   1.906   3.719   7.121
 4406WAT      O13759   2.727   2.210   5.781
 4406WAT     H113760   2.786   2.273   5.732
 4406WAT     H213761   2.746   2.116   5.752
 4407WAT      O13762   3.224   3.006   6.131
 4407WAT     H113763   3.307   2.977   6.083
 4407WAT     H213764   3.175   3.073   6.075
 4408WAT      O13765   2.412   2.058   6.471
 4408WAT     H113766   2.407   2.053   6.571
 4408WAT     H213767   2.414   2.154   6.442
 4409WAT      O13768   2.870   3.318   6.063
 4409WAT     H113769   2.824   3.390   6.011
 4409WAT     H213770   2.866   3.338   6.161
 4410WAT      O13771   2.213   3.663   6.439
 4410WAT     H113772   2.263   3.577   6.445
 4410WAT     H213773   2.278   3.740   6.436
 4411WAT      O13774   3.657   2.928   6.459
 4411WAT     H113775   3.595   2.913   6.383
 4411WAT     H213776   3.605   2.939   6.544
 4412WAT      O13777   2.183   2.805   5.828
 4412WAT     H113778   2.265   2.844   5.786
 4412WAT     H213779   2.156   2.723   5.779
 4413WAT      O13780   3.320   2.597   6.314
 4413WAT     H113781   3.315   2.532   6.389
 4413WAT     H213782   3.400   2.656   6.327
 4414WAT      O13783   2.973   3.638   5.823
 4414WAT     H113784   2.913   3.576   5.873
 4414WAT     H213785   3.004   3.594   5.738
 4415WAT      O13786   3.494   3.239   5.667
 4415WAT     H113787   3.462   3.333   5.657
 4415WAT     H213788   3.418   3.176   5.655
 4416WAT      O13789   2.326   3.605   5.909
 4416WAT     H113790   2.359   3.644   5.995
 4416WAT     H213791   2.402   3.598   5.844
 4417WAT      O13792   3.262   1.969   6.012
 4417WAT     H113793   3.238   1.932   5.922
 4417WAT     H213794   3.361   1.985   6.016
 4418WAT      O13795   2.111   3.647   6.827
 4418WAT     H113796   2.168   3.582   6.877
 4418WAT     H213797   2.095   3.614   6.734
 4419WAT      O13798   2.802   3.560   6.490
 4419WAT     H113799   2.882   3.503   6.511
 4419WAT     H213800   2.753   3.520   6.413
 4420WAT      O13801   2.244   2.562   6.066
 4420WAT     H113802   2.289   2.472   6.063
 4420WAT     H213803   2.150   2.551   6.099
 4421WAT      O13804   2.476   1.984   5.703
 4421WAT     H113805   2.574   1.962   5.710
 4421WAT     H213806   2.445   1.967   5.610
 4422WAT      O13807   2.750   3.376   6.781
 4422WAT     H113808   2.727   3.351   6.687
 4422WAT     H213809   2.811   3.307   6.820
 4423WAT      O13810   2.665   3.264   6.510
 4423WAT     H113811   2.755   3.278   6.468
 4423WAT     H213812   2.594   3.266   6.439
 4424WAT      O13813   2.784   2.365   6.485
 4424WAT     H113814   2.759   2.356   6.389
 4424WAT     H213815   2.832   2.283   6.516
 4425WAT      O13816   2.401   1.926   6.098
 4425WAT     H113817   2.320   1.927   6.156
 4425WAT     H213818   2.404   2.009   6.043
 4426WAT      O13819   3.296   3.050   5.627
 4426WAT     H113820   3.328   2.974   5.684
 4426WAT     H213821   3.204   3.077   5.657
 4427WAT      O13822   2.159   1.897   5.757
 4427WAT     H113823   2.208   1.981   5.736
 4427WAT     H213824   2.221   1.832   5.802
 4428WAT      O13825   2.797   2.098   6.066
 4428WAT     H113826   2.749   2.139   5.988
 4428WAT     H213827   2.896   2.096   6.047
 4429WAT      O13828   3.089   3.432   6.379
 4429WAT     H113829   3.110   3.506   6.314
 4429WAT     H213830   3.157   3.432   6.452
 4430WAT      O13831   2.321   3.014   6.327
 4430WAT     H113832   2.250   2.987   6.392
 4430WAT     H213833   2.295   2.986   6.234
 4431WAT      O13834   3.133   3.659   6.177
 4431WAT     H113835   3.177   3.723   6.113
 4431WAT     H213836   3.083   3.711   6.247
 4432WAT      O13837   2.894   2.411   5.602
 4432WAT     H113838   2.853   2.493   5.563
 4432WAT     H213839   2.958   2.437   5.675
 4433WAT      O13840   2.423   2.084   6.733
 4433WAT     H113841   2.461   2.000   6.770
 4433WAT     H213842   2.335   2.103   6.777
 4434WAT      O13843   2.728   2.316   6.228
 4434WAT     H113844   2.696   2.388   6.166
 4434WAT     H213845   2.752   2.235   6.175
 4435WAT      O13846   2.879   1.901   6.339
 4435WAT     H113847   2.807   1.906   6.270
 4435WAT     H213848   2.855   1.832   6.408
 4436WAT      O13849   3.291   3.035   6.453
 4436WAT     H113850   3.236   2.951   6.446
 4436WAT     H213851   3.317   3.064   6.361
 4437WAT      O13852   3.328   2.452   6.578
 4437WAT     H113853   3.298   2.357   6.585
 4437WAT     H213854   3.401   2.468   6.644
 4438WAT      O13855   3.719   2.695   5.963
 4438WAT     H113856   3.761   2.631   6.027
 4438WAT     H213857   3.681   2.644   5.885
 4439WAT      O13858   2.350   3.247   5.760
 4439WAT     H113859   2.263   3.232   5.807
 4439WAT     H213860   2.333   3.273   5.665
 4440WAT      O13861   3.526   3.142   6.243
 4440WAT     H113862   3.625   3.150   6.257
 4440WAT     H213863   3.481   3.226   6.274
 4441WAT      O13864   3.252   2.437   5.664
 4441WAT     H113865   3.198   2.416   5.745
 4441WAT     H213866   3.343   2.396   5.673
 4442WAT      O13867   2.389   2.118   5.914
 4442WAT     H113868   2.416   2.059   5.839
 4442WAT     H213869   2.389   2.213   5.883
 4443WAT      O13870   3.616   3.085   7.174
 4443WAT     H113871   3.707   3.046   7.161
 4443WAT     H213872   3.624   3.181   7.198
 4444WAT      O13873   2.973   3.057   6.686
 4444WAT     H113874   2.933   3.101   6.767
 4444WAT     H213875   2.932   3.094   6.603
 4445WAT      O13876   3.500   2.961   6.665
 4445WAT     H113877   3.505   3.042   6.724
 4445WAT     H213878   3.414   2.963   6.614
 4446WAT      O13879   2.567   2.912   5.954
 4446WAT     H113880   2.553   2.919   6.053
 4446WAT     H213881   2.651   2.861   5.936
 4447WAT      O13882   2.272   2.675   6.837
 4447WAT     H113883   2.358   2.687   6.887
 4447WAT     H213884   2.230   2.588   6.864
 4448WAT      O13885   3.136   2.248   6.848
 4448WAT     H113886   3.157   2.322   6.912
 4448WAT     H213887   3.047   2.265   6.805
 4449WAT      O13888   1.926   3.426   6.917
 4449WAT     H113889   1.880   3.508   6.883
 4449WAT     H213890   2.024   3.445   6.926
 4450WAT      O13891   2.229   2.962   6.087
 4450WAT     H113892   2.222   3.045   6.031
 4450WAT     H213893   2.233   2.882   6.027
 4451WAT      O13894   2.428   2.399   6.451
 4451WAT     H113895   2.440   2.465   6.377
 4451WAT     H213896   2.474   2.433   6.534
 4452WAT      O13897   3.114   3.210   5.974
 4452WAT     H113898   3.164   3.287   6.014
 4452WAT     H213899   3.019   3.212   6.006
 4453WAT      O13900   3.134   3.307   6.728
 4453WAT     H113901   3.181   3.320   6.815
 4453WAT     H213902   3.068   3.233   6.737
 4454WAT      O13903   3.444   2.501   6.058
 4454WAT     H113904   3.413   2.562   6.131
 4454WAT     H213905   3.494   2.553   5.989
 4455WAT      O13906   2.216   3.372   6.915
 4455WAT     H113907   2.195   3.328   6.828
 4455WAT     H213908   2.313   3.398   6.918
 4456WAT      O13909   2.435   2.732   6.615
 4456WAT     H113910   2.479   2.821   6.606
 4456WAT     H213911   2.372   2.732   6.692
 4457WAT      O13912   3.222   2.724   6.631
 4457WAT     H113913   3.147   2.724   6.565
 4457WAT     H213914   3.259   2.632   6.640
 4458WAT      O13915   3.071   2.387   5.861
 4458WAT     H113916   3.084   2.303   5.915
 4458WAT     H213917   3.042   2.461   5.921
 4459WAT      O13918   2.169   2.075   6.817
 4459WAT     H113919   2.146   2.112   6.907
 4459WAT     H213920   2.139   1.980   6.811
 4460WAT      O13921   1.899   3.172   6.868
 4460WAT     H113922   1.952   3.123   6.936
 4460WAT     H213923   1.921   3.270   6.873
 4461WAT      O13924   2.594   2.496   6.650
 4461WAT     H113925   2.653   2.470   6.574
 4461WAT     H213926   2.566   2.592   6.639
 4462WAT      O13927   2.169   1.925   6.204
 4462WAT     H113928   2.158   2.019   6.237
 4462WAT     H213929   2.164   1.862   6.281
 4463WAT      O13930   3.484   2.229   5.960
 4463WAT     H113931   3.486   2.153   6.024
 4463WAT     H213932   3.436   2.306   6.000
 4464WAT      O13933   2.885   2.628   6.552
 4464WAT     H113934   2.900   2.649   6.648
 4464WAT     H213935   2.855   2.533   6.543
 4465WAT      O13936   3.402   2.136   5.711
 4465WAT     H113937   3.341   2.061   5.734
 4465WAT     H213938   3.424   2.188   5.794
 4466WAT      O13939   3.165   2.700   5.628
 4466WAT     H113940   3.199   2.607   5.643
 4466WAT     H213941   3.183   2.727   5.533
 4467WAT      O13942   2.930   3.195   6.435
 4467WAT     H113943   2.937   3.111   6.380
 4467WAT     H213944   2.992   3.264   6.399
 4468WAT      O13945   2.181   2.672   6.535
 4468WAT     H113946   2.274   2.708   6.540
 4468WAT     H213947   2.175   2.587   6.587
 4469WAT      O13948   2.201   2.371   6.592
 4469WAT     H113949   2.149   2.288   6.575
 4469WAT     H213950   2.278   2.376   6.528
 4470WAT      O13951   3.022   2.069   7.063
 4470WAT     H113952   3.022   2.133   7.140
 4470WAT     H213953   3.050   2.117   6.980
 4471WAT      O13954   1.870   3.188   5.786
 4471WAT     H113955   1.777   3.209   5.755
 4471WAT     H213956   1.880   3.089   5.799
 4472WAT      O13957   1.950   3.663   6.513
 4472WAT     H113958   1.908   3.577   6.486
 4472WAT     H213959   2.044   3.666   6.479
 4473WAT      O13960   2.366   3.430   6.496
 4473WAT     H113961   2.432   3.504   6.505
 4473WAT     H213962   2.410   3.351   6.454
 4474WAT      O13963   2.864   2.658   6.824
 4474WAT     H113964   2.905   2.626   6.910
 4474WAT     H213965   2.768   2.631   6.821
 4475WAT      O13966   1.902   2.406   6.700
 4475WAT     H113967   1.987   2.373   6.659
 4475WAT     H213968   1.915   2.421   6.798
 4476WAT      O13969   2.677   2.434   5.911
 4476WAT     H113970   2.684   2.345   5.865
 4476WAT     H213971   2.583   2.468   5.903
 4477WAT      O13972   3.519   2.466   6.792
 4477WAT     H113973   3.481   2.397   6.854
 4477WAT     H213974   3.601   2.430   6.748
 4478WAT      O13975   2.533   2.326   6.855
 4478WAT     H113976   2.499   2.237   6.825
 4478WAT     H213977   2.559   2.380   6.775
 4479WAT      O13978   2.792   3.540   7.051
 4479WAT     H113979   2.768   3.522   6.956
 4479WAT     H213980   2.822   3.634   7.061
 4480WAT      O13981   2.335   2.362   5.777
 4480WAT     H113982   2.396   2.442   5.781
 4480WAT     H213983   2.240   2.393   5.784
 4481WAT      O13984   2.021   2.999   7.052
 4481WAT     H113985   2.043   2.938   7.128
 4481WAT     H213986   2.031   2.950   6.966
 4482WAT      O13987   3.209   2.921   6.820
 4482WAT     H113988   3.233   2.858   6.746
 4482WAT     H213989   3.119   2.961   6.802
 4483WAT      O13990   3.164   2.717   5.895
 4483WAT     H113991   3.078   2.686   5.937
 4483WAT     H213992   3.160   2.703   5.796
 4484WAT      O13993   3.621   3.609   6.740
 4484WAT     H113994   3.682   3.639   6.667
 4484WAT     H213995   3.583   3.520   6.718
 4485WAT      O13996   3.114   3.593   6.714
 4485WAT     H113997   3.198   3.598   6.660
 4485WAT     H213998   3.091   3.497   6.732
 4486WAT      O13999   1.945   3.120   6.608
 4486WAT     H114000   1.940   3.119   6.708
 4486WAT     H214001   1.862   3.079   6.570
 4487WAT      O14002   3.588   1.997   6.109
 4487WAT     H114003   3.661   1.980   6.042
 4487WAT     H214004   3.557   1.910   6.147
 4488WAT      O14005   3.250   3.435   6.063
 4488WAT     H114006   3.317   3.447   5.989
 4488WAT     H214007   3.210   3.524   6.086
 4489WAT      O14008   3.142   2.789   6.258
 4489WAT     H114009   3.202   2.708   6.260
 4489WAT     H214010   3.182   2.858   6.198
 4490WAT      O14011   2.534   3.478   5.740
 4490WAT     H114012   2.543   3.488   5.641
 4490WAT     H214013   2.494   3.389   5.761
 4491WAT      O14014   3.703   2.037   6.549
 4491WAT     H114015   3.742   1.952   6.513
 4491WAT     H214016   3.605   2.039   6.530
 4492WAT      O14017   2.125   2.188   6.306
 4492WAT     H114018   2.046   2.239   6.272
 4492WAT     H214019   2.116   2.173   6.404
 4493WAT      O14020   3.056   3.474   5.617
 4493WAT     H114021   3.062   3.381   5.654
 4493WAT     H214022   2.997   3.474   5.537
 4494WAT      O14023   2.684   2.864   6.958
 4494WAT     H114024   2.724   2.863   6.866
 4494WAT     H214025   2.694   2.956   6.998
 4495WAT      O14026   2.778   2.772   5.877
 4495WAT     H114027   2.841   2.810   5.809
 4495WAT     H214028   2.818   2.689   5.916
 4496WAT      O14029   3.366   3.469   5.630
 4496WAT     H114030   3.274   3.506   5.637
 4496WAT     H214031   3.404   3.489   5.540
 4497WAT      O14032   3.476   3.154   6.875
 4497WAT     H114033   3.536   3.157   6.955
 4497WAT     H214034   3.401   3.218   6.888
 4498WAT      O14035   2.901   2.960   6.282
 4498WAT     H114036   2.831   2.913   6.336
 4498WAT     H214037   2.960   2.892   6.239
 4499WAT      O14038   2.876   2.098   6.557
 4499WAT     H114039   2.868   2.062   6.464
 4499WAT     H214040   2.874   2.022   6.622
 4500WAT      O14041   2.452   3.349   6.077
 4500WAT     H114042   2.494   3.291   6.007
 4500WAT     H214043   2.408   3.428   6.033
 4501WAT      O14044   3.571   2.247   6.967
 4501WAT     H114045   3.644   2.316   6.971
 4501WAT     H214046   3.599   2.172   6.908
 4502WAT      O14047   2.117   3.210   5.876
 4502WAT     H114048   2.021   3.211   5.849
 4502WAT     H214049   2.129   3.263   5.960
 4503WAT      O14050   2.534   2.065   7.075
 4503WAT     H114051   2.624   2.049   7.035
 4503WAT     H214052   2.542   2.070   7.174
 4504WAT      O14053   1.937   2.207   5.619
 4504WAT     H114054   1.845   2.179   5.590
 4504WAT     H214055   1.968   2.284   5.563
 4505WAT      O14056   1.934   2.028   5.904
 4505WAT     H114057   1.917   2.111   5.850
 4505WAT     H214058   2.024   1.991   5.882
 4506WAT      O14059   3.045   3.197   5.705
 4506WAT     H114060   2.946   3.186   5.707
 4506WAT     H214061   3.079   3.212   5.798
 4507WAT      O14062   3.355   3.629   6.545
 4507WAT     H114063   3.388   3.693   6.476
 4507WAT     H214064   3.421   3.623   6.620
 4508WAT      O14065   3.312   3.082   7.219
 4508WAT     H114066   3.303   3.072   7.318
 4508WAT     H214067   3.408   3.075   7.193
 4509WAT      O14068   2.252   3.603   7.146
 4509WAT     H114069   2.161   3.644   7.144
 4509WAT     H214070   2.245   3.509   7.178
 4510WAT      O14071   3.536   2.745   6.840
 4510WAT     H114072   3.509   2.656   6.803
 4510WAT     H214073   3.537   2.813   6.767
 4511WAT      O14074   3.087   2.187   6.035
 4511WAT     H114075   3.152   2.113   6.024
 4511WAT     H214076   3.107   2.237   6.119
 4512WAT      O14077   2.456   2.607   6.238
 4512WAT     H114078   2.506   2.692   6.219
 4512WAT     H214079   2.368   2.609   6.190
 4513WAT      O14080   3.592   2.796   7.103
 4513WAT     H114081   3.630   2.887   7.118
 4513WAT     H214082   3.584   2.779   7.004
 4514WAT      O14083   2.721   3.236   5.602
 4514WAT     H114084   2.675   3.251   5.690
 4514WAT     H214085   2.765   3.321   5.572
 4515WAT      O14086   2.523   3.652   6.539
 4515WAT     H114087   2.477   3.740   6.526
 4515WAT     H214088   2.622   3.664   6.532
 4516WAT      O14089   2.721   2.818   6.447
 4516WAT     H114090   2.775   2.749   6.495
 4516WAT     H214091   2.689   2.887   6.513
 4517WAT      O14092   2.945   2.846   5.673
 4517WAT     H114093   2.922   2.899   5.591
 4517WAT     H214094   3.026   2.790   5.654
 4518WAT      O14095   3.723   3.431   6.437
 4518WAT     H114096   3.652   3.419   6.367
 4518WAT     H214097   3.724   3.352   6.497
 4519WAT      O14098   1.941   3.102   6.239
 4519WAT     H114099   1.940   3.055   6.327
 4519WAT     H214100   2.023   3.074   6.188
 4520WAT      O14101   3.686   2.054   6.813
 4520WAT     H114102   3.682   1.964   6.857
 4520WAT     H214103   3.689   2.043   6.714
 4521WAT      O14104   2.290   2.286   6.106
 4521WAT     H114105   2.320   2.214   6.044
 4521WAT     H214106   2.251   2.246   6.189
 4522WAT      O14107   3.567   3.349   6.690
 4522WAT     H114108   3.474   3.324   6.663
 4522WAT     H214109   3.593   3.299   6.772
 4523WAT      O14110   2.179   2.409   6.866
 4523WAT     H114111   2.217   2.350   6.938
 4523WAT     H214112   2.219   2.383   6.778
 4524WAT      O14113   2.674   3.448   6.273
 4524WAT     H114114   2.706   3.458   6.179
 4524WAT     H214115   2.595   3.386   6.275
 4525WAT      O14116   3.286   2.076   6.698
 4525WAT     H114117   3.338   2.011   6.753
 4525WAT     H214118   3.237   2.139   6.759
 4526WAT      O14119   2.863   1.896   6.740
 4526WAT     H114120   2.800   1.824   6.709
 4526WAT     H214121   2.956   1.860   6.740
 4527WAT      O14122   2.632   3.192   5.887
 4527WAT     H114123   2.586   3.105   5.904
 4527WAT     H214124   2.723   3.189   5.928
 4528WAT      O14125   2.480   3.429   6.870
 4528WAT     H114126   2.475   3.511   6.927
 4528WAT     H214127   2.569   3.426   6.825
 4529WAT      O14128   3.214   1.914   5.754
 4529WAT     H114129   3.249   1.873   5.670
 4529WAT     H214130   3.124   1.876   5.774
 4530WAT      O14131   3.162   2.315   6.277
 4530WAT     H114132   3.103   2.395   6.281
 4530WAT     H214133   3.177   2.280   6.370
 4531WAT      O14134   3.455   2.083   6.468
 4531WAT     H114135   3.371   2.082   6.522
 4531WAT     H214136   3.457   2.166   6.412
 4532WAT      O14137   1.901   2.939   5.886
 4532WAT     H114138   2.000   2.928   5.877
 4532WAT     H214139   1.861   2.853   5.918
 4533WAT      O14140   2.737   3.508   5.923
 4533WAT     H114141   2.660   3.473   5.869
 4533WAT     H214142   2.705   3.579   5.985
 4534WAT      O14143   2.092   4.352   0.113
 4534WAT     H114144   1.999   4.350   0.150
 4534WAT     H214145   2.093   4.313   0.021
 4535WAT      O14146   2.087   3.999   0.996
 4535WAT     H114147   2.122   3.982   1.088
 4535WAT     H214148   1.999   3.954   0.984
 4536WAT      O14149   1.881   4.092   0.647
 4536WAT     H114150   1.799   4.135   0.686
 4536WAT     H214151   1.853   4.019   0.584
 4537WAT      O14152   2.431   4.999   1.165
 4537WAT     H114153   2.338   4.992   1.128
 4537WAT     H214154   2.442   5.088   1.209
 4538WAT      O14155   3.417   5.235   0.703
 4538WAT     H114156   3.360   5.219   0.784
 4538WAT     H214157   3.358   5.245   0.623
 4539WAT      O14158   2.997   4.427   0.717
 4539WAT     H114159   3.054   4.505   0.692
 4539WAT     H214160   2.937   4.453   0.793
 4540WAT      O14161   3.617   4.331   0.231
 4540WAT     H114162   3.605   4.318   0.132
 4540WAT     H214163   3.587   4.250   0.280
 4541WAT      O14164   2.630   4.868   1.023
 4541WAT     H114165   2.552   4.885   1.083
 4541WAT     H214166   2.664   4.955   0.987
 4542WAT      O14167   2.712   4.522   1.823
 4542WAT     H114168   2.708   4.598   1.888
 4542WAT     H214169   2.734   4.558   1.732
 4543WAT      O14170   2.547   4.736   0.665
 4543WAT     H114171   2.616   4.720   0.735
 4543WAT     H214172   2.474   4.793   0.703
 4544WAT      O14173   2.548   4.885   1.803
 4544WAT     H114174   2.608   4.964   1.817
 4544WAT     H214175   2.462   4.916   1.762
 4545WAT      O14176   2.197   5.159   1.061
 4545WAT     H114177   2.119   5.128   1.008
 4545WAT     H214178   2.255   5.217   1.004
 4546WAT      O14179   3.322   5.229   1.339
 4546WAT     H114180   3.346   5.323   1.365
 4546WAT     H214181   3.306   5.175   1.421
 4547WAT      O14182   2.300   4.116   1.499
 4547WAT     H114183   2.382   4.060   1.508
 4547WAT     H214184   2.219   4.058   1.503
 4548WAT      O14185   3.465   4.171   0.737
 4548WAT     H114186   3.391   4.217   0.687
 4548WAT     H214187   3.516   4.239   0.790
 4549WAT      O14188   2.093   5.437   0.483
 4549WAT     H114189   2.127   5.514   0.537
 4549WAT     H214190   2.137   5.437   0.393
 4550WAT      O14191   2.989   5.065   1.690
 4550WAT     H114192   3.036   5.065   1.778
 4550WAT     H214193   2.941   4.978   1.679
 4551WAT      O14194   2.092   5.158   0.538
 4551WAT     H114195   2.066   5.254   0.538
 4551WAT     H214196   2.021   5.104   0.583
 4552WAT      O14197   2.102   4.815   0.886
 4552WAT     H114198   2.116   4.731   0.938
 4552WAT     H214199   2.047   4.879   0.941
 4553WAT      O14200   2.482   5.510   1.439
 4553WAT     H114201   2.390   5.493   1.474
 4553WAT     H214202   2.510   5.602   1.465
 4554WAT      O14203   2.468   4.688   0.123
 4554WAT     H114204   2.475   4.772   0.069
 4554WAT     H214205   2.514   4.701   0.211
 4555WAT      O14206   3.456   3.838   1.480
 4555WAT     H114207   3.438   3.905   1.408
 4555WAT     H214208   3.453   3.884   1.569
 4556WAT      O14209   1.984   4.367   0.563
 4556WAT     H114210   1.939   4.279   0.580
 4556WAT     H214211   1.983   4.421   0.647
 4557WAT      O14212   3.704   5.491   0.359
 4557WAT     H114213   3.758   5.462   0.439
 4557WAT     H214214   3.734   5.581   0.330
 4558WAT      O14215   3.551   4.646   0.612
 4558WAT     H114216   3.646   4.617   0.620
 4558WAT     H214217   3.543   4.711   0.537
 4559WAT      O14218   3.503   4.832   0.432
 4559WAT     H114219   3.589   4.834   0.380
 4559WAT     H214220   3.517   4.879   0.520
 4560WAT      O14221   1.975   4.461   1.597
 4560WAT     H114222   2.063   4.448   1.642
 4560WAT     H214223   1.962   4.558   1.575
 4561WAT      O14224   2.475   5.089   0.726
 4561WAT     H114225   2.426   5.002   0.735
 4561WAT     H214226   2.452   5.132   0.639
 4562WAT      O14227   3.155   4.952   1.423
 4562WAT     H114228   3.192   4.879   1.365
 4562WAT     H214229   3.207   4.957   1.508
 4563WAT      O14230   2.671   3.728   0.502
 4563WAT     H114231   2.711   3.819   0.493
 4563WAT     H214232   2.571   3.736   0.508
 4564WAT      O14233   2.059   4.700   1.264
 4564WAT     H114234   2.148   4.655   1.250
 4564WAT     H214235   1.986   4.635   1.245
 4565WAT      O14236   3.387   4.723   0.190
 4565WAT     H114237   3.324   4.647   0.203
 4565WAT     H214238   3.435   4.741   0.276
 4566WAT      O14239   3.049   5.516   1.616
 4566WAT     H114240   3.073   5.576   1.540
 4566WAT     H214241   3.056   5.421   1.586
 4567WAT      O14242   2.179   3.975   1.801
 4567WAT     H114243   2.250   4.046   1.807
 4567WAT     H214244   2.091   4.014   1.829
 4568WAT      O14245   3.328   5.141   0.953
 4568WAT     H114246   3.269   5.147   1.033
 4568WAT     H214247   3.313   5.053   0.907
 4569WAT      O14248   3.529   5.438   0.572
 4569WAT     H114249   3.488   5.415   0.484
 4569WAT     H214250   3.511   5.364   0.637
 4570WAT      O14251   2.460   4.453   0.270
 4570WAT     H114252   2.484   4.522   0.202
 4570WAT     H214253   2.382   4.486   0.324
 4571WAT      O14254   3.143   4.069   0.944
 4571WAT     H114255   3.057   4.019   0.931
 4571WAT     H214256   3.205   4.015   1.000
 4572WAT      O14257   3.438   5.386   0.307
 4572WAT     H114258   3.527   5.432   0.310
 4572WAT     H214259   3.417   5.362   0.212
 4573WAT      O14260   2.669   4.329   1.465
 4573WAT     H114261   2.622   4.326   1.554
 4573WAT     H214262   2.618   4.274   1.399
 4574WAT      O14263   3.256   4.193   1.674
 4574WAT     H114264   3.236   4.236   1.762
 4574WAT     H214265   3.334   4.131   1.683
 4575WAT      O14266   2.835   4.614   1.572
 4575WAT     H114267   2.881   4.530   1.543
 4575WAT     H214268   2.779   4.648   1.497
 4576WAT      O14269   2.853   4.134   1.242
 4576WAT     H114270   2.776   4.168   1.296
 4576WAT     H214271   2.819   4.083   1.163
 4577WAT      O14272   2.903   4.425   0.429
 4577WAT     H114273   2.929   4.421   0.525
 4577WAT     H214274   2.818   4.374   0.415
 4578WAT      O14275   1.938   4.535   0.789
 4578WAT     H114276   2.037   4.523   0.798
 4578WAT     H214277   1.914   4.630   0.810
 4579WAT      O14278   1.992   5.545   1.571
 4579WAT     H114279   1.982   5.530   1.670
 4579WAT     H214280   1.906   5.581   1.535
 4580WAT      O14281   2.727   4.072   0.195
 4580WAT     H114282   2.786   4.135   0.146
 4580WAT     H214283   2.746   3.978   0.166
 4581WAT      O14284   3.581   4.309   1.831
 4581WAT     H114285   3.555   4.398   1.795
 4581WAT     H214286   3.579   4.241   1.758
 4582WAT      O14287   3.224   4.868   0.545
 4582WAT     H114288   3.307   4.839   0.497
 4582WAT     H214289   3.175   4.935   0.489
 4583WAT      O14290   2.412   3.920   0.885
 4583WAT     H114291   2.407   3.915   0.985
 4583WAT     H214292   2.414   4.016   0.856
 4584WAT      O14293   2.870   5.180   0.477
 4584WAT     H114294   2.824   5.252   0.425
 4584WAT     H214295   2.866   5.200   0.575
 4585WAT      O14296   2.213   5.525   0.853
 4585WAT     H114297   2.263   5.439   0.859
 4585WAT     H214298   2.278   5.602   0.850
 4586WAT      O14299   3.657   4.790   0.873
 4586WAT     H114300   3.595   4.775   0.797
 4586WAT     H214301   3.605   4.801   0.958
 4587WAT      O14302   3.089   5.274   1.506
 4587WAT     H114303   3.095   5.197   1.570
 4587WAT     H214304   3.037   5.248   1.426
 4588WAT      O14305   2.183   4.667   0.242
 4588WAT     H114306   2.265   4.706   0.200
 4588WAT     H214307   2.156   4.585   0.193
 4589WAT      O14308   3.320   4.459   0.728
 4589WAT     H114309   3.315   4.394   0.803
 4589WAT     H214310   3.400   4.518   0.741
 4590WAT      O14311   2.323   4.990   1.727
 4590WAT     H114312   2.273   4.991   1.641
 4590WAT     H214313   2.260   4.972   1.803
 4591WAT      O14314   2.973   5.500   0.237
 4591WAT     H114315   2.913   5.438   0.287
 4591WAT     H214316   3.004   5.456   0.152
 4592WAT      O14317   2.064   4.009   1.498
 4592WAT     H114318   1.984   4.069   1.485
 4592WAT     H214319   2.054   3.960   1.584
 4593WAT      O14320   3.494   5.101   0.081
 4593WAT     H114321   3.462   5.195   0.071
 4593WAT     H214322   3.418   5.038   0.069
 4594WAT      O14323   2.326   5.467   0.323
 4594WAT     H114324   2.359   5.506   0.409
 4594WAT     H214325   2.402   5.460   0.258
 4595WAT      O14326   2.111   5.509   1.241
 4595WAT     H114327   2.168   5.444   1.291
 4595WAT     H214328   2.095   5.476   1.148
 4596WAT      O14329   2.802   5.422   0.904
 4596WAT     H114330   2.882   5.365   0.925
 4596WAT     H214331   2.753   5.382   0.827
 4597WAT      O14332   2.244   4.424   0.480
 4597WAT     H114333   2.289   4.334   0.477
 4597WAT     H214334   2.150   4.413   0.513
 4598WAT      O14335   3.409   3.946   1.729
 4598WAT     H114336   3.404   3.983   1.821
 4598WAT     H214337   3.337   3.877   1.717
 4599WAT      O14338   2.643   3.988   1.749
 4599WAT     H114339   2.710   3.927   1.792
 4599WAT     H214340   2.570   4.007   1.814
 4600WAT      O14341   2.750   5.238   1.195
 4600WAT     H114342   2.727   5.213   1.101
 4600WAT     H214343   2.811   5.169   1.234
 4601WAT      O14344   3.213   4.314   1.433
 4601WAT     H114345   3.241   4.271   1.518
 4601WAT     H214346   3.238   4.410   1.434
 4602WAT      O14347   2.665   5.126   0.924
 4602WAT     H114348   2.755   5.140   0.882
 4602WAT     H214349   2.594   5.128   0.853
 4603WAT      O14350   2.784   4.227   0.899
 4603WAT     H114351   2.759   4.218   0.803
 4603WAT     H214352   2.832   4.145   0.930
 4604WAT      O14353   2.401   3.788   0.512
 4604WAT     H114354   2.320   3.789   0.570
 4604WAT     H214355   2.404   3.871   0.457
 4605WAT      O14356   3.296   4.912   0.041
 4605WAT     H114357   3.328   4.836   0.098
 4605WAT     H214358   3.204   4.939   0.071
 4606WAT      O14359   2.797   3.960   0.480
 4606WAT     H114360   2.749   4.001   0.402
 4606WAT     H214361   2.896   3.958   0.461
 4607WAT      O14362   2.938   4.407   1.464
 4607WAT     H114363   2.858   4.346   1.467
 4607WAT     H214364   3.019   4.354   1.440
 4608WAT      O14365   3.089   5.294   0.793
 4608WAT     H114366   3.110   5.368   0.728
 4608WAT     H214367   3.157   5.294   0.866
 4609WAT      O14368   2.321   4.876   0.741
 4609WAT     H114369   2.250   4.849   0.806
 4609WAT     H214370   2.295   4.848   0.648
 4610WAT      O14371   3.133   5.521   0.591
 4610WAT     H114372   3.177   5.585   0.527
 4610WAT     H214373   3.083   5.573   0.661
 4611WAT      O14374   2.894   4.273   0.016
 4611WAT     H114375   2.853   4.355  -0.023
 4611WAT     H214376   2.958   4.299   0.089
 4612WAT      O14377   1.940   4.280   1.386
 4612WAT     H114378   2.032   4.279   1.345
 4612WAT     H214379   1.934   4.354   1.453
 4613WAT      O14380   2.423   3.946   1.147
 4613WAT     H114381   2.461   3.862   1.184
 4613WAT     H214382   2.335   3.965   1.191
 4614WAT      O14383   2.728   4.178   0.642
 4614WAT     H114384   2.696   4.250   0.580
 4614WAT     H214385   2.752   4.097   0.589
 4615WAT      O14386   2.879   3.763   0.753
 4615WAT     H114387   2.807   3.768   0.684
 4615WAT     H214388   2.855   3.694   0.822
 4616WAT      O14389   3.291   4.897   0.867
 4616WAT     H114390   3.236   4.813   0.860
 4616WAT     H214391   3.317   4.926   0.775
 4617WAT      O14392   3.328   4.314   0.992
 4617WAT     H114393   3.298   4.219   0.999
 4617WAT     H214394   3.401   4.330   1.058
 4618WAT      O14395   3.719   4.557   0.377
 4618WAT     H114396   3.761   4.493   0.441
 4618WAT     H214397   3.681   4.506   0.299
 4619WAT      O14398   2.350   5.109   0.174
 4619WAT     H114399   2.263   5.094   0.221
 4619WAT     H214400   2.333   5.135   0.079
 4620WAT      O14401   3.526   5.004   0.657
 4620WAT     H114402   3.625   5.012   0.671
 4620WAT     H214403   3.481   5.088   0.688
 4621WAT      O14404   3.252   4.299   0.078
 4621WAT     H114405   3.198   4.278   0.159
 4621WAT     H214406   3.343   4.258   0.087
 4622WAT      O14407   2.389   3.980   0.328
 4622WAT     H114408   2.416   3.921   0.253
 4622WAT     H214409   2.389   4.075   0.297
 4623WAT      O14410   3.616   4.947   1.588
 4623WAT     H114411   3.707   4.908   1.575
 4623WAT     H214412   3.624   5.043   1.612
 4624WAT      O14413   2.926   5.071   1.340
 4624WAT     H114414   2.846   5.048   1.395
 4624WAT     H214415   3.009   5.045   1.389
 4625WAT      O14416   3.454   5.353   1.625
 4625WAT     H114417   3.481   5.387   1.535
 4625WAT     H214418   3.533   5.315   1.671
 4626WAT      O14419   2.973   4.919   1.100
 4626WAT     H114420   2.933   4.963   1.181
 4626WAT     H214421   2.932   4.956   1.017
 4627WAT      O14422   3.500   4.823   1.079
 4627WAT     H114423   3.505   4.904   1.138
 4627WAT     H214424   3.414   4.825   1.028
 4628WAT      O14425   2.777   3.813   1.402
 4628WAT     H114426   2.802   3.793   1.307
 4628WAT     H214427   2.849   3.869   1.444
 4629WAT      O14428   2.842   4.840   1.719
 4629WAT     H114429   2.743   4.846   1.729
 4629WAT     H214430   2.865   4.760   1.663
 4630WAT      O14431   2.567   4.774   0.368
 4630WAT     H114432   2.553   4.781   0.467
 4630WAT     H214433   2.651   4.723   0.350
 4631WAT      O14434   2.272   4.537   1.251
 4631WAT     H114435   2.358   4.549   1.301
 4631WAT     H214436   2.230   4.450   1.278
 4632WAT      O14437   3.136   4.110   1.262
 4632WAT     H114438   3.157   4.184   1.326
 4632WAT     H214439   3.047   4.127   1.219
 4633WAT      O14440   1.926   5.288   1.331
 4633WAT     H114441   1.880   5.370   1.297
 4633WAT     H214442   2.024   5.307   1.340
 4634WAT      O14443   2.229   4.824   0.501
 4634WAT     H114444   2.222   4.907   0.445
 4634WAT     H214445   2.233   4.744   0.441
 4635WAT      O14446   2.428   4.261   0.865
 4635WAT     H114447   2.440   4.327   0.791
 4635WAT     H214448   2.474   4.295   0.948
 4636WAT      O14449   3.114   5.072   0.388
 4636WAT     H114450   3.164   5.149   0.428
 4636WAT     H214451   3.019   5.074   0.420
 4637WAT      O14452   3.134   5.169   1.142
 4637WAT     H114453   3.181   5.182   1.229
 4637WAT     H214454   3.068   5.095   1.151
 4638WAT      O14455   3.444   4.363   0.472
 4638WAT     H114456   3.413   4.424   0.545
 4638WAT     H214457   3.494   4.415   0.403
 4639WAT      O14458   2.216   5.234   1.329
 4639WAT     H114459   2.195   5.190   1.242
 4639WAT     H214460   2.313   5.260   1.332
 4640WAT      O14461   2.264   4.475   1.598
 4640WAT     H114462   2.332   4.530   1.551
 4640WAT     H214463   2.304   4.387   1.625
 4641WAT      O14464   3.449   4.503   1.670
 4641WAT     H114465   3.357   4.541   1.665
 4641WAT     H214466   3.509   4.550   1.605
 4642WAT      O14467   2.875   3.829   1.770
 4642WAT     H114468   2.881   3.914   1.718
 4642WAT     H214469   2.907   3.753   1.713
 4643WAT      O14470   2.366   3.774   1.740
 4643WAT     H114471   2.324   3.717   1.670
 4643WAT     H214472   2.300   3.843   1.772
 4644WAT      O14473   2.435   4.594   1.029
 4644WAT     H114474   2.479   4.683   1.020
 4644WAT     H214475   2.372   4.594   1.106
 4645WAT      O14476   3.222   4.586   1.045
 4645WAT     H114477   3.147   4.586   0.979
 4645WAT     H214478   3.259   4.494   1.054
 4646WAT      O14479   3.071   4.249   0.275
 4646WAT     H114480   3.084   4.165   0.329
 4646WAT     H214481   3.042   4.323   0.335
 4647WAT      O14482   2.169   3.937   1.231
 4647WAT     H114483   2.146   3.974   1.321
 4647WAT     H214484   2.139   3.842   1.225
 4648WAT      O14485   1.899   5.034   1.282
 4648WAT     H114486   1.952   4.985   1.350
 4648WAT     H214487   1.921   5.132   1.287
 4649WAT      O14488   2.594   4.358   1.064
 4649WAT     H114489   2.653   4.332   0.988
 4649WAT     H214490   2.566   4.454   1.053
 4650WAT      O14491   3.590   4.659   1.854
 4650WAT     H114492   3.544   4.652   1.765
 4650WAT     H214493   3.528   4.703   1.920
 4651WAT      O14494   2.169   3.787   0.618
 4651WAT     H114495   2.158   3.881   0.651
 4651WAT     H214496   2.164   3.724   0.695
 4652WAT      O14497   3.484   4.091   0.374
 4652WAT     H114498   3.486   4.015   0.438
 4652WAT     H214499   3.436   4.168   0.414
 4653WAT      O14500   2.885   4.490   0.966
 4653WAT     H114501   2.900   4.511   1.062
 4653WAT     H214502   2.855   4.395   0.957
 4654WAT      O14503   2.842   5.297   1.700
 4654WAT     H114504   2.822   5.341   1.612
 4654WAT     H214505   2.881   5.206   1.684
 4655WAT      O14506   3.721   5.242   1.605
 4655WAT     H114507   3.735   5.269   1.510
 4655WAT     H214508   3.804   5.264   1.658
 4656WAT      O14509   2.212   4.622   1.804
 4656WAT     H114510   2.288   4.666   1.852
 4656WAT     H214511   2.247   4.575   1.722
 4657WAT      O14512   3.402   3.998   0.125
 4657WAT     H114513   3.341   3.923   0.148
 4657WAT     H214514   3.424   4.050   0.208
 4658WAT      O14515   3.165   4.562   0.042
 4658WAT     H114516   3.199   4.469   0.057
 4658WAT     H214517   3.183   4.589  -0.053
 4659WAT      O14518   2.930   5.057   0.849
 4659WAT     H114519   2.937   4.973   0.794
 4659WAT     H214520   2.992   5.126   0.813
 4660WAT      O14521   2.181   4.534   0.949
 4660WAT     H114522   2.274   4.570   0.954
 4660WAT     H214523   2.175   4.449   1.001
 4661WAT      O14524   2.201   4.233   1.006
 4661WAT     H114525   2.149   4.150   0.989
 4661WAT     H214526   2.278   4.238   0.942
 4662WAT      O14527   3.000   4.104   1.678
 4662WAT     H114528   2.955   4.167   1.742
 4662WAT     H214529   3.093   4.135   1.661
 4663WAT      O14530   3.022   3.931   1.477
 4663WAT     H114531   3.022   3.995   1.554
 4663WAT     H214532   3.050   3.979   1.394
 4664WAT      O14533   1.950   5.525   0.927
 4664WAT     H114534   1.908   5.439   0.900
 4664WAT     H214535   2.044   5.528   0.893
 4665WAT      O14536   2.366   5.292   0.910
 4665WAT     H114537   2.432   5.366   0.919
 4665WAT     H214538   2.410   5.213   0.868
 4666WAT      O14539   2.864   4.520   1.238
 4666WAT     H114540   2.905   4.488   1.324
 4666WAT     H214541   2.768   4.493   1.235
 4667WAT      O14542   1.902   4.268   1.114
 4667WAT     H114543   1.987   4.235   1.073
 4667WAT     H214544   1.915   4.283   1.212
 4668WAT      O14545   2.051   4.244   1.722
 4668WAT     H114546   2.110   4.204   1.652
 4668WAT     H214547   1.993   4.315   1.681
 4669WAT      O14548   3.231   4.674   1.660
 4669WAT     H114549   3.270   4.763   1.680
 4669WAT     H214550   3.241   4.654   1.563
 4670WAT      O14551   2.677   4.296   0.325
 4670WAT     H114552   2.684   4.207   0.279
 4670WAT     H214553   2.583   4.330   0.317
 4671WAT      O14554   3.519   4.328   1.206
 4671WAT     H114555   3.481   4.259   1.268
 4671WAT     H214556   3.601   4.292   1.162
 4672WAT      O14557   2.114   5.288   1.744
 4672WAT     H114558   2.084   5.345   1.820
 4672WAT     H214559   2.107   5.191   1.770
 4673WAT      O14560   2.533   4.188   1.269
 4673WAT     H114561   2.499   4.099   1.239
 4673WAT     H214562   2.559   4.242   1.189
 4674WAT      O14563   2.792   5.402   1.465
 4674WAT     H114564   2.768   5.384   1.370
 4674WAT     H214565   2.822   5.496   1.475
 4675WAT      O14566   2.335   4.224   0.191
 4675WAT     H114567   2.396   4.304   0.195
 4675WAT     H214568   2.240   4.255   0.198
 4676WAT      O14569   2.021   4.861   1.466
 4676WAT     H114570   2.043   4.800   1.542
 4676WAT     H214571   2.031   4.812   1.380
 4677WAT      O14572   3.209   4.783   1.234
 4677WAT     H114573   3.233   4.720   1.160
 4677WAT     H214574   3.119   4.823   1.216
 4678WAT      O14575   3.164   4.579   0.309
 4678WAT     H114576   3.078   4.548   0.351
 4678WAT     H214577   3.160   4.565   0.210
 4679WAT      O14578   3.621   5.471   1.154
 4679WAT     H114579   3.682   5.501   1.081
 4679WAT     H214580   3.583   5.382   1.132
 4680WAT      O14581   3.114   5.455   1.128
 4680WAT     H114582   3.198   5.460   1.074
 4680WAT     H214583   3.091   5.359   1.146
 4681WAT      O14584   1.945   4.982   1.022
 4681WAT     H114585   1.940   4.981   1.122
 4681WAT     H214586   1.862   4.941   0.984
 4682WAT      O14587   2.550   5.386   1.716
 4682WAT     H114588   2.494   5.467   1.725
 4682WAT     H214589   2.602   5.390   1.630
 4683WAT      O14590   2.765   3.810   0.133
 4683WAT     H114591   2.816   3.811   0.047
 4683WAT     H214592   2.821   3.768   0.204
 4684WAT      O14593   3.588   3.859   0.523
 4684WAT     H114594   3.661   3.842   0.456
 4684WAT     H214595   3.557   3.772   0.561
 4685WAT      O14596   3.250   5.297   0.477
 4685WAT     H114597   3.317   5.309   0.403
 4685WAT     H214598   3.210   5.386   0.500
 4686WAT      O14599   1.992   5.518   1.851
 4686WAT     H114600   1.951   5.444   1.904
 4686WAT     H214601   2.056   5.569   1.909
 4687WAT      O14602   3.142   4.651   0.672
 4687WAT     H114603   3.202   4.570   0.674
 4687WAT     H214604   3.182   4.720   0.612
 4688WAT      O14605   2.692   4.997   1.422
 4688WAT     H114606   2.687   5.030   1.517
 4688WAT     H214607   2.606   5.016   1.376
 4689WAT      O14608   2.534   5.340   0.154
 4689WAT     H114609   2.543   5.350   0.055
 4689WAT     H214610   2.494   5.251   0.175
 4690WAT      O14611   3.512   5.444   1.394
 4690WAT     H114612   3.565   5.454   1.310
 4690WAT     H214613   3.485   5.534   1.428
 4691WAT      O14614   3.703   3.899   0.963
 4691WAT     H114615   3.742   3.814   0.927
 4691WAT     H214616   3.605   3.901   0.944
 4692WAT      O14617   2.125   4.050   0.720
 4692WAT     H114618   2.046   4.101   0.686
 4692WAT     H214619   2.116   4.035   0.818
 4693WAT      O14620   3.056   5.336   0.031
 4693WAT     H114621   3.062   5.243   0.068
 4693WAT     H214622   2.997   5.336  -0.049
 4694WAT      O14623   2.684   4.726   1.372
 4694WAT     H114624   2.724   4.725   1.280
 4694WAT     H214625   2.694   4.818   1.412
 4695WAT      O14626   2.778   4.634   0.291
 4695WAT     H114627   2.841   4.672   0.223
 4695WAT     H214628   2.818   4.551   0.330
 4696WAT      O14629   3.366   5.331   0.044
 4696WAT     H114630   3.274   5.368   0.051
 4696WAT     H214631   3.404   5.351  -0.046
 4697WAT      O14632   2.234   5.012   1.490
 4697WAT     H114633   2.221   5.105   1.456
 4697WAT     H214634   2.150   4.960   1.477
 4698WAT      O14635   3.476   5.016   1.289
 4698WAT     H114636   3.536   5.019   1.369
 4698WAT     H214637   3.401   5.080   1.302
 4699WAT      O14638   2.901   4.822   0.696
 4699WAT     H114639   2.831   4.775   0.750
 4699WAT     H214640   2.960   4.754   0.653
 4700WAT      O14641   2.876   3.960   0.971
 4700WAT     H114642   2.868   3.924   0.878
 4700WAT     H214643   2.874   3.884   1.036
 4701WAT      O14644   2.452   5.211   0.491
 4701WAT     H114645   2.494   5.153   0.421
 4701WAT     H214646   2.408   5.290   0.447
 4702WAT      O14647   3.571   4.109   1.381
 4702WAT     H114648   3.644   4.178   1.385
 4702WAT     H214649   3.599   4.034   1.322
 4703WAT      O14650   2.117   5.072   0.290
 4703WAT     H114651   2.021   5.073   0.263
 4703WAT     H214652   2.129   5.125   0.374
 4704WAT      O14653   1.967   4.737   1.726
 4704WAT     H114654   1.890   4.704   1.780
 4704WAT     H214655   2.052   4.707   1.768
 4705WAT      O14656   2.534   3.927   1.489
 4705WAT     H114657   2.624   3.911   1.449
 4705WAT     H214658   2.542   3.932   1.588
 4706WAT      O14659   1.937   4.069   0.033
 4706WAT     H114660   1.845   4.041   0.004
 4706WAT     H214661   1.968   4.146  -0.023
 4707WAT      O14662   3.302   4.580   1.398
 4707WAT     H114663   3.245   4.632   1.335
 4707WAT     H214664   3.398   4.592   1.374
 4708WAT      O14665   1.934   3.890   0.318
 4708WAT     H114666   1.917   3.973   0.264
 4708WAT     H214667   2.024   3.853   0.296
 4709WAT      O14668   3.045   5.059   0.119
 4709WAT     H114669   2.946   5.048   0.121
 4709WAT     H214670   3.079   5.074   0.212
 4710WAT      O14671   2.475   4.566   1.431
 4710WAT     H114672   2.531   4.647   1.414
 4710WAT     H214673   2.534   4.486   1.434
 4711WAT      O14674   3.355   5.491   0.959
 4711WAT     H114675   3.388   5.555   0.890
 4711WAT     H214676   3.421   5.485   1.034
 4712WAT      O14677   2.578   4.289   1.708
 4712WAT     H114678   2.597   4.354   1.782
 4712WAT     H214679   2.638   4.209   1.717
 4713WAT      O14680   3.312   4.944   1.633
 4713WAT     H114681   3.303   4.934   1.732
 4713WAT     H214682   3.408   4.937   1.607
 4714WAT      O14683   2.252   5.465   1.560
 4714WAT     H114684   2.161   5.506   1.558
 4714WAT     H214685   2.245   5.371   1.592
 4715WAT      O14686   3.536   4.607   1.254
 4715WAT     H114687   3.509   4.518   1.217
 4715WAT     H214688   3.537   4.675   1.181
 4716WAT      O14689   3.087   4.049   0.449
 4716WAT     H114690   3.152   3.975   0.438
 4716WAT     H214691   3.107   4.099   0.533
 4717WAT      O14692   2.456   4.469   0.652
 4717WAT     H114693   2.506   4.554   0.633
 4717WAT     H214694   2.368   4.471   0.604
 4718WAT      O14695   3.639   4.066   1.642
 4718WAT     H114696   3.622   4.097   1.548
 4718WAT     H214697   3.555   4.029   1.680
 4719WAT      O14698   3.592   4.658   1.517
 4719WAT     H114699   3.630   4.749   1.532
 4719WAT     H214700   3.584   4.641   1.418
 4720WAT      O14701   2.721   5.098   0.016
 4720WAT     H114702   2.675   5.113   0.104
 4720WAT     H214703   2.765   5.183  -0.014
 4721WAT      O14704   2.523   5.514   0.953
 4721WAT     H114705   2.477   5.602   0.940
 4721WAT     H214706   2.622   5.526   0.946
 4722WAT      O14707   2.721   4.680   0.861
 4722WAT     H114708   2.775   4.611   0.909
 4722WAT     H214709   2.689   4.749   0.927
 4723WAT      O14710   2.945   4.708   0.087
 4723WAT     H114711   2.922   4.761   0.005
 4723WAT     H214712   3.026   4.652   0.068
 4724WAT      O14713   3.723   5.293   0.851
 4724WAT     H114714   3.652   5.281   0.781
 4724WAT     H214715   3.724   5.214   0.911
 4725WAT      O14716   2.083   5.038   1.844
 4725WAT     H114717   2.018   4.965   1.823
 4725WAT     H214718   2.087   5.052   1.942
 4726WAT      O14719   1.941   4.964   0.653
 4726WAT     H114720   1.940   4.917   0.741
 4726WAT     H214721   2.023   4.936   0.602
 4727WAT      O14722   2.534   5.115   1.624
 4727WAT     H114723   2.456   5.065   1.662
 4727WAT     H214724   2.531   5.210   1.655
 4728WAT      O14725   3.686   3.916   1.227
 4728WAT     H114726   3.682   3.826   1.271
 4728WAT     H214727   3.689   3.905   1.128
 4729WAT      O14728   2.290   4.148   0.520
 4729WAT     H114729   2.320   4.076   0.458
 4729WAT     H214730   2.251   4.108   0.603
 4730WAT      O14731   3.567   5.211   1.104
 4730WAT     H114732   3.474   5.186   1.077
 4730WAT     H214733   3.593   5.161   1.186
 4731WAT      O14734   2.179   4.271   1.280
 4731WAT     H114735   2.217   4.212   1.352
 4731WAT     H214736   2.219   4.245   1.192
 4732WAT      O14737   2.674   5.310   0.687
 4732WAT     H114738   2.706   5.320   0.593
 4732WAT     H214739   2.595   5.248   0.689
 4733WAT      O14740   3.286   3.938   1.112
 4733WAT     H114741   3.338   3.873   1.167
 4733WAT     H214742   3.237   4.001   1.173
 4734WAT      O14743   2.863   3.758   1.154
 4734WAT     H114744   2.800   3.686   1.123
 4734WAT     H214745   2.956   3.722   1.154
 4735WAT      O14746   2.632   5.054   0.301
 4735WAT     H114747   2.586   4.967   0.318
 4735WAT     H214748   2.723   5.051   0.342
 4736WAT      O14749   2.480   5.291   1.284
 4736WAT     H114750   2.475   5.373   1.341
 4736WAT     H214751   2.569   5.288   1.239
 4737WAT      O14752   3.214   3.776   0.168
 4737WAT     H114753   3.249   3.735   0.084
 4737WAT     H214754   3.124   3.738   0.188
 4738WAT      O14755   3.162   4.177   0.691
 4738WAT     H114756   3.103   4.257   0.695
 4738WAT     H214757   3.177   4.142   0.784
 4739WAT      O14758   3.455   3.945   0.882
 4739WAT     H114759   3.371   3.944   0.936
 4739WAT     H214760   3.457   4.028   0.826
 4740WAT      O14761   1.901   4.801   0.300
 4740WAT     H114762   2.000   4.790   0.291
 4740WAT     H214763   1.861   4.715   0.332
 4741WAT      O14764   2.737   5.370   0.337
 4741WAT     H114765   2.660   5.335   0.283
 4741WAT     H214766   2.705   5.441   0.399
 4742WAT      O14767   2.092   4.352   1.975
 4742WAT     H114768   1.999   4.350   2.012
 4742WAT     H214769   2.093   4.313   1.883
 4743WAT      O14770   2.087   3.999   2.858
 4743WAT     H114771   2.122   3.982   2.950
 4743WAT     H214772   1.999   3.954   2.846
 4744WAT      O14773   1.881   4.092   2.509
 4744WAT     H114774   1.799   4.135   2.548
 4744WAT     H214775   1.853   4.019   2.446
 4745WAT      O14776   2.431   4.999   3.027
 4745WAT     H114777   2.338   4.992   2.990
 4745WAT     H214778   2.442   5.088   3.071
 4746WAT      O14779   3.417   5.235   2.565
 4746WAT     H114780   3.360   5.219   2.646
 4746WAT     H214781   3.358   5.245   2.485
 4747WAT      O14782   3.617   4.331   2.093
 4747WAT     H114783   3.605   4.318   1.994
 4747WAT     H214784   3.587   4.250   2.142
 4748WAT      O14785   2.630   4.868   2.885
 4748WAT     H114786   2.552   4.885   2.945
 4748WAT     H214787   2.664   4.955   2.849
 4749WAT      O14788   2.547   4.736   2.527
 4749WAT     H114789   2.616   4.720   2.597
 4749WAT     H214790   2.474   4.793   2.565
 4750WAT      O14791   2.548   4.885   3.665
 4750WAT     H114792   2.608   4.964   3.679
 4750WAT     H214793   2.462   4.916   3.624
 4751WAT      O14794   2.197   5.159   2.923
 4751WAT     H114795   2.119   5.128   2.870
 4751WAT     H214796   2.255   5.217   2.866
 4752WAT      O14797   3.322   5.229   3.201
 4752WAT     H114798   3.346   5.323   3.227
 4752WAT     H214799   3.306   5.175   3.283
 4753WAT      O14800   2.300   4.116   3.361
 4753WAT     H114801   2.382   4.060   3.370
 4753WAT     H214802   2.219   4.058   3.365
 4754WAT      O14803   3.465   4.171   2.599
 4754WAT     H114804   3.391   4.217   2.549
 4754WAT     H214805   3.516   4.239   2.652
 4755WAT      O14806   2.093   5.437   2.345
 4755WAT     H114807   2.127   5.514   2.399
 4755WAT     H214808   2.137   5.437   2.255
 4756WAT      O14809   2.989   5.065   3.552
 4756WAT     H114810   3.036   5.065   3.640
 4756WAT     H214811   2.941   4.978   3.541
 4757WAT      O14812   2.092   5.158   2.400
 4757WAT     H114813   2.066   5.254   2.400
 4757WAT     H214814   2.021   5.104   2.445
 4758WAT      O14815   2.102   4.815   2.748
 4758WAT     H114816   2.116   4.731   2.800
 4758WAT     H214817   2.047   4.879   2.803
 4759WAT      O14818   2.482   5.510   3.301
 4759WAT     H114819   2.390   5.493   3.336
 4759WAT     H214820   2.510   5.602   3.327
 4760WAT      O14821   2.468   4.688   1.985
 4760WAT     H114822   2.475   4.772   1.931
 4760WAT     H214823   2.514   4.701   2.073
 4761WAT      O14824   1.984   4.367   2.425
 4761WAT     H114825   1.939   4.279   2.442
 4761WAT     H214826   1.983   4.421   2.509
 4762WAT      O14827   3.704   5.491   2.221
 4762WAT     H114828   3.758   5.462   2.301
 4762WAT     H214829   3.734   5.581   2.192
 4763WAT      O14830   1.889   5.320   1.979
 4763WAT     H114831   1.870   5.224   2.000
 4763WAT     H214832   1.856   5.378   2.054
 4764WAT      O14833   3.551   4.646   2.474
 4764WAT     H114834   3.646   4.617   2.482
 4764WAT     H214835   3.543   4.711   2.399
 4765WAT      O14836   3.503   4.832   2.294
 4765WAT     H114837   3.589   4.834   2.242
 4765WAT     H214838   3.517   4.879   2.382
 4766WAT      O14839   1.975   4.461   3.459
 4766WAT     H114840   2.063   4.448   3.504
 4766WAT     H214841   1.962   4.558   3.437
 4767WAT      O14842   2.475   5.089   2.588
 4767WAT     H114843   2.426   5.002   2.597
 4767WAT     H214844   2.452   5.132   2.501
 4768WAT      O14845   2.671   3.728   2.364
 4768WAT     H114846   2.711   3.819   2.355
 4768WAT     H214847   2.571   3.736   2.370
 4769WAT      O14848   2.059   4.700   3.126
 4769WAT     H114849   2.148   4.655   3.112
 4769WAT     H214850   1.986   4.635   3.107
 4770WAT      O14851   3.387   4.723   2.052
 4770WAT     H114852   3.324   4.647   2.065
 4770WAT     H214853   3.435   4.741   2.138
 4771WAT      O14854   3.049   5.516   3.478
 4771WAT     H114855   3.073   5.576   3.402
 4771WAT     H214856   3.056   5.421   3.448
 4772WAT      O14857   3.328   5.141   2.815
 4772WAT     H114858   3.269   5.147   2.895
 4772WAT     H214859   3.313   5.053   2.769
 4773WAT      O14860   3.529   5.438   2.434
 4773WAT     H114861   3.488   5.415   2.346
 4773WAT     H214862   3.511   5.364   2.499
 4774WAT      O14863   2.460   4.453   2.132
 4774WAT     H114864   2.484   4.522   2.064
 4774WAT     H214865   2.382   4.486   2.186
 4775WAT      O14866   3.438   5.386   2.169
 4775WAT     H114867   3.527   5.432   2.172
 4775WAT     H214868   3.417   5.362   2.074
 4776WAT      O14869   2.669   4.329   3.327
 4776WAT     H114870   2.622   4.326   3.416
 4776WAT     H214871   2.618   4.274   3.261
 4777WAT      O14872   2.853   4.134   3.104
 4777WAT     H114873   2.776   4.168   3.158
 4777WAT     H214874   2.819   4.083   3.025
 4778WAT      O14875   2.903   4.425   2.291
 4778WAT     H114876   2.929   4.421   2.387
 4778WAT     H214877   2.818   4.374   2.277
 4779WAT      O14878   1.938   4.535   2.651
 4779WAT     H114879   2.037   4.523   2.660
 4779WAT     H214880   1.914   4.630   2.672
 4780WAT      O14881   1.992   5.545   3.433
 4780WAT     H114882   1.982   5.530   3.532
 4780WAT     H214883   1.906   5.581   3.397
 4781WAT      O14884   2.727   4.072   2.057
 4781WAT     H114885   2.786   4.135   2.008
 4781WAT     H214886   2.746   3.978   2.028
 4782WAT      O14887   3.224   4.868   2.407
 4782WAT     H114888   3.307   4.839   2.359
 4782WAT     H214889   3.175   4.935   2.351
 4783WAT      O14890   2.412   3.920   2.747
 4783WAT     H114891   2.407   3.915   2.847
 4783WAT     H214892   2.414   4.016   2.718
 4784WAT      O14893   2.870   5.180   2.339
 4784WAT     H114894   2.824   5.252   2.287
 4784WAT     H214895   2.866   5.200   2.437
 4785WAT      O14896   2.213   5.525   2.715
 4785WAT     H114897   2.263   5.439   2.721
 4785WAT     H214898   2.278   5.602   2.712
 4786WAT      O14899   3.657   4.790   2.735
 4786WAT     H114900   3.595   4.775   2.659
 4786WAT     H214901   3.605   4.801   2.820
 4787WAT      O14902   3.089   5.274   3.368
 4787WAT     H114903   3.095   5.197   3.432
 4787WAT     H214904   3.037   5.248   3.288
 4788WAT      O14905   2.183   4.667   2.104
 4788WAT     H114906   2.265   4.706   2.062
 4788WAT     H214907   2.156   4.585   2.055
 4789WAT      O14908   3.320   4.459   2.590
 4789WAT     H114909   3.315   4.394   2.665
 4789WAT     H214910   3.400   4.518   2.603
 4790WAT      O14911   2.323   4.990   3.589
 4790WAT     H114912   2.273   4.991   3.503
 4790WAT     H214913   2.260   4.972   3.665
 4791WAT      O14914   2.973   5.500   2.099
 4791WAT     H114915   2.913   5.438   2.149
 4791WAT     H214916   3.004   5.456   2.014
 4792WAT      O14917   2.064   4.009   3.360
 4792WAT     H114918   1.984   4.069   3.347
 4792WAT     H214919   2.054   3.960   3.446
 4793WAT      O14920   3.494   5.101   1.943
 4793WAT     H114921   3.462   5.195   1.933
 4793WAT     H214922   3.418   5.038   1.931
 4794WAT      O14923   2.326   5.467   2.185
 4794WAT     H114924   2.359   5.506   2.271
 4794WAT     H214925   2.402   5.460   2.120
 4795WAT      O14926   3.262   3.831   2.288
 4795WAT     H114927   3.238   3.794   2.198
 4795WAT     H214928   3.361   3.847   2.292
 4796WAT      O14929   2.111   5.509   3.103
 4796WAT     H114930   2.168   5.444   3.153
 4796WAT     H214931   2.095   5.476   3.010
 4797WAT      O14932   2.802   5.422   2.766
 4797WAT     H114933   2.882   5.365   2.787
 4797WAT     H214934   2.753   5.382   2.689
 4798WAT      O14935   2.244   4.424   2.342
 4798WAT     H114936   2.289   4.334   2.339
 4798WAT     H214937   2.150   4.413   2.375
 4799WAT      O14938   2.476   3.846   1.979
 4799WAT     H114939   2.574   3.824   1.986
 4799WAT     H214940   2.445   3.829   1.886
 4800WAT      O14941   2.750   5.238   3.057
 4800WAT     H114942   2.727   5.213   2.963
 4800WAT     H214943   2.811   5.169   3.096
 4801WAT      O14944   2.665   5.126   2.786
 4801WAT     H114945   2.755   5.140   2.744
 4801WAT     H214946   2.594   5.128   2.715
 4802WAT      O14947   2.401   3.788   2.374
 4802WAT     H114948   2.320   3.789   2.432
 4802WAT     H214949   2.404   3.871   2.319
 4803WAT      O14950   3.296   4.912   1.903
 4803WAT     H114951   3.328   4.836   1.960
 4803WAT     H214952   3.204   4.939   1.933
 4804WAT      O14953   2.159   3.759   2.033
 4804WAT     H114954   2.208   3.843   2.012
 4804WAT     H214955   2.221   3.694   2.078
 4805WAT      O14956   2.797   3.960   2.342
 4805WAT     H114957   2.749   4.001   2.264
 4805WAT     H214958   2.896   3.958   2.323
 4806WAT      O14959   3.089   5.294   2.655
 4806WAT     H114960   3.110   5.368   2.590
 4806WAT     H214961   3.157   5.294   2.728
 4807WAT      O14962   2.321   4.876   2.603
 4807WAT     H114963   2.250   4.849   2.668
 4807WAT     H214964   2.295   4.848   2.510
 4808WAT      O14965   3.133   5.521   2.453
 4808WAT     H114966   3.177   5.585   2.389
 4808WAT     H214967   3.083   5.573   2.523
 4809WAT      O14968   2.894   4.273   1.878
 4809WAT     H114969   2.853   4.355   1.839
 4809WAT     H214970   2.958   4.299   1.951
 4810WAT      O14971   1.940   4.280   3.248
 4810WAT     H114972   2.032   4.279   3.207
 4810WAT     H214973   1.934   4.354   3.315
 4811WAT      O14974   2.423   3.946   3.009
 4811WAT     H114975   2.461   3.862   3.046
 4811WAT     H214976   2.335   3.965   3.053
 4812WAT      O14977   2.879   3.763   2.615
 4812WAT     H114978   2.807   3.768   2.546
 4812WAT     H214979   2.855   3.694   2.684
 4813WAT      O14980   3.291   4.897   2.729
 4813WAT     H114981   3.236   4.813   2.722
 4813WAT     H214982   3.317   4.926   2.637
 4814WAT      O14983   3.719   4.557   2.239
 4814WAT     H114984   3.761   4.493   2.303
 4814WAT     H214985   3.681   4.506   2.161
 4815WAT      O14986   2.350   5.109   2.036
 4815WAT     H114987   2.263   5.094   2.083
 4815WAT     H214988   2.333   5.135   1.941
 4816WAT      O14989   3.526   5.004   2.519
 4816WAT     H114990   3.625   5.012   2.533
 4816WAT     H214991   3.481   5.088   2.550
 4817WAT      O14992   3.252   4.299   1.940
 4817WAT     H114993   3.198   4.278   2.021
 4817WAT     H214994   3.343   4.258   1.949
 4818WAT      O14995   2.389   3.980   2.190
 4818WAT     H114996   2.416   3.921   2.115
 4818WAT     H214997   2.389   4.075   2.159
 4819WAT      O14998   3.616   4.947   3.450
 4819WAT     H114999   3.707   4.908   3.437
 4819WAT     H215000   3.624   5.043   3.474
 4820WAT      O15001   2.926   5.071   3.202
 4820WAT     H115002   2.846   5.048   3.257
 4820WAT     H215003   3.009   5.045   3.251
 4821WAT      O15004   3.454   5.353   3.487
 4821WAT     H115005   3.481   5.387   3.397
 4821WAT     H215006   3.533   5.315   3.533
 4822WAT      O15007   2.777   3.813   3.264
 4822WAT     H115008   2.802   3.793   3.169
 4822WAT     H215009   2.849   3.869   3.306
 4823WAT      O15010   2.567   4.774   2.230
 4823WAT     H115011   2.553   4.781   2.329
 4823WAT     H215012   2.651   4.723   2.212
 4824WAT      O15013   2.272   4.537   3.113
 4824WAT     H115014   2.358   4.549   3.163
 4824WAT     H215015   2.230   4.450   3.140
 4825WAT      O15016   1.926   5.288   3.193
 4825WAT     H115017   1.880   5.370   3.159
 4825WAT     H215018   2.024   5.307   3.202
 4826WAT      O15019   2.229   4.824   2.363
 4826WAT     H115020   2.222   4.907   2.307
 4826WAT     H215021   2.233   4.744   2.303
 4827WAT      O15022   2.428   4.261   2.727
 4827WAT     H115023   2.440   4.327   2.653
 4827WAT     H215024   2.474   4.295   2.810
 4828WAT      O15025   3.114   5.072   2.250
 4828WAT     H115026   3.164   5.149   2.290
 4828WAT     H215027   3.019   5.074   2.282
 4829WAT      O15028   3.444   4.363   2.334
 4829WAT     H115029   3.413   4.424   2.407
 4829WAT     H215030   3.494   4.415   2.265
 4830WAT      O15031   2.216   5.234   3.191
 4830WAT     H115032   2.195   5.190   3.104
 4830WAT     H215033   2.313   5.260   3.194
 4831WAT      O15034   2.264   4.475   3.460
 4831WAT     H115035   2.332   4.530   3.413
 4831WAT     H215036   2.304   4.387   3.487
 4832WAT      O15037   3.449   4.503   3.532
 4832WAT     H115038   3.357   4.541   3.527
 4832WAT     H215039   3.509   4.550   3.467
 4833WAT      O15040   2.435   4.594   2.891
 4833WAT     H115041   2.479   4.683   2.882
 4833WAT     H215042   2.372   4.594   2.968
 4834WAT      O15043   3.071   4.249   2.137
 4834WAT     H115044   3.084   4.165   2.191
 4834WAT     H215045   3.042   4.323   2.197
 4835WAT      O15046   2.169   3.937   3.093
 4835WAT     H115047   2.146   3.974   3.183
 4835WAT     H215048   2.139   3.842   3.087
 4836WAT      O15049   1.899   5.034   3.144
 4836WAT     H115050   1.952   4.985   3.212
 4836WAT     H215051   1.921   5.132   3.149
 4837WAT      O15052   3.590   4.659   3.716
 4837WAT     H115053   3.544   4.652   3.627
 4837WAT     H215054   3.528   4.703   3.782
 4838WAT      O15055   2.169   3.787   2.480
 4838WAT     H115056   2.158   3.881   2.513
 4838WAT     H215057   2.164   3.724   2.557
 4839WAT      O15058   3.484   4.091   2.236
 4839WAT     H115059   3.486   4.015   2.300
 4839WAT     H215060   3.436   4.168   2.276
 4840WAT      O15061   2.842   5.297   3.562
 4840WAT     H115062   2.822   5.341   3.474
 4840WAT     H215063   2.881   5.206   3.546
 4841WAT      O15064   3.721   5.242   3.467
 4841WAT     H115065   3.735   5.269   3.372
 4841WAT     H215066   3.804   5.264   3.520
 4842WAT      O15067   2.212   4.622   3.666
 4842WAT     H115068   2.288   4.666   3.714
 4842WAT     H215069   2.247   4.575   3.584
 4843WAT      O15070   3.402   3.998   1.987
 4843WAT     H115071   3.341   3.923   2.010
 4843WAT     H215072   3.424   4.050   2.070
 4844WAT      O15073   3.165   4.562   1.904
 4844WAT     H115074   3.199   4.469   1.919
 4844WAT     H215075   3.183   4.589   1.809
 4845WAT      O15076   2.930   5.057   2.711
 4845WAT     H115077   2.937   4.973   2.656
 4845WAT     H215078   2.992   5.126   2.675
 4846WAT      O15079   2.181   4.534   2.811
 4846WAT     H115080   2.274   4.570   2.816
 4846WAT     H215081   2.175   4.449   2.863
 4847WAT      O15082   2.201   4.233   2.868
 4847WAT     H115083   2.149   4.150   2.851
 4847WAT     H215084   2.278   4.238   2.804
 4848WAT      O15085   1.870   5.050   2.062
 4848WAT     H115086   1.777   5.071   2.031
 4848WAT     H215087   1.880   4.951   2.075
 4849WAT      O15088   1.950   5.525   2.789
 4849WAT     H115089   1.908   5.439   2.762
 4849WAT     H215090   2.044   5.528   2.755
 4850WAT      O15091   2.366   5.292   2.772
 4850WAT     H115092   2.432   5.366   2.781
 4850WAT     H215093   2.410   5.213   2.730
 4851WAT      O15094   2.864   4.520   3.100
 4851WAT     H115095   2.905   4.488   3.186
 4851WAT     H215096   2.768   4.493   3.097
 4852WAT      O15097   1.902   4.268   2.976
 4852WAT     H115098   1.987   4.235   2.935
 4852WAT     H215099   1.915   4.283   3.074
 4853WAT      O15100   2.051   4.244   3.584
 4853WAT     H115101   2.110   4.204   3.514
 4853WAT     H215102   1.993   4.315   3.543
 4854WAT      O15103   3.231   4.674   3.522
 4854WAT     H115104   3.270   4.763   3.542
 4854WAT     H215105   3.241   4.654   3.425
 4855WAT      O15106   2.677   4.296   2.187
 4855WAT     H115107   2.684   4.207   2.141
 4855WAT     H215108   2.583   4.330   2.179
 4856WAT      O15109   2.114   5.288   3.606
 4856WAT     H115110   2.084   5.345   3.682
 4856WAT     H215111   2.107   5.191   3.632
 4857WAT      O15112   2.533   4.188   3.131
 4857WAT     H115113   2.499   4.099   3.101
 4857WAT     H215114   2.559   4.242   3.051
 4858WAT      O15115   2.792   5.402   3.327
 4858WAT     H115116   2.768   5.384   3.232
 4858WAT     H215117   2.822   5.496   3.337
 4859WAT      O15118   2.335   4.224   2.053
 4859WAT     H115119   2.396   4.304   2.057
 4859WAT     H215120   2.240   4.255   2.060
 4860WAT      O15121   2.021   4.861   3.328
 4860WAT     H115122   2.043   4.800   3.404
 4860WAT     H215123   2.031   4.812   3.242
 4861WAT      O15124   3.164   4.579   2.171
 4861WAT     H115125   3.078   4.548   2.213
 4861WAT     H215126   3.160   4.565   2.072
 4862WAT      O15127   3.621   5.471   3.016
 4862WAT     H115128   3.682   5.501   2.943
 4862WAT     H215129   3.583   5.382   2.994
 4863WAT      O15130   3.114   5.455   2.990
 4863WAT     H115131   3.198   5.460   2.936
 4863WAT     H215132   3.091   5.359   3.008
 4864WAT      O15133   1.945   4.982   2.884
 4864WAT     H115134   1.940   4.981   2.984
 4864WAT     H215135   1.862   4.941   2.846
 4865WAT      O15136   2.550   5.386   3.578
 4865WAT     H115137   2.494   5.467   3.587
 4865WAT     H215138   2.602   5.390   3.492
 4866WAT      O15139   3.588   3.859   2.385
 4866WAT     H115140   3.661   3.842   2.318
 4866WAT     H215141   3.557   3.772   2.423
 4867WAT      O15142   3.250   5.297   2.339
 4867WAT     H115143   3.317   5.309   2.265
 4867WAT     H215144   3.210   5.386   2.362
 4868WAT      O15145   1.992   5.518   3.713
 4868WAT     H115146   1.951   5.444   3.766
 4868WAT     H215147   2.056   5.569   3.771
 4869WAT      O15148   3.142   4.651   2.534
 4869WAT     H115149   3.202   4.570   2.536
 4869WAT     H215150   3.182   4.720   2.474
 4870WAT      O15151   2.692   4.997   3.284
 4870WAT     H115152   2.687   5.030   3.379
 4870WAT     H215153   2.606   5.016   3.238
 4871WAT      O15154   2.534   5.340   2.016
 4871WAT     H115155   2.543   5.350   1.917
 4871WAT     H215156   2.494   5.251   2.037
 4872WAT      O15157   3.512   5.444   3.256
 4872WAT     H115158   3.565   5.454   3.172
 4872WAT     H215159   3.485   5.534   3.290
 4873WAT      O15160   2.125   4.050   2.582
 4873WAT     H115161   2.046   4.101   2.548
 4873WAT     H215162   2.116   4.035   2.680
 4874WAT      O15163   3.056   5.336   1.893
 4874WAT     H115164   3.062   5.243   1.930
 4874WAT     H215165   2.997   5.336   1.813
 4875WAT      O15166   2.684   4.726   3.234
 4875WAT     H115167   2.724   4.725   3.142
 4875WAT     H215168   2.694   4.818   3.274
 4876WAT      O15169   2.778   4.634   2.153
 4876WAT     H115170   2.841   4.672   2.085
 4876WAT     H215171   2.818   4.551   2.192
 4877WAT      O15172   3.366   5.331   1.906
 4877WAT     H115173   3.274   5.368   1.913
 4877WAT     H215174   3.404   5.351   1.816
 4878WAT      O15175   2.234   5.012   3.352
 4878WAT     H115176   2.221   5.105   3.318
 4878WAT     H215177   2.150   4.960   3.339
 4879WAT      O15178   3.476   5.016   3.151
 4879WAT     H115179   3.536   5.019   3.231
 4879WAT     H215180   3.401   5.080   3.164
 4880WAT      O15181   2.876   3.960   2.833
 4880WAT     H115182   2.868   3.924   2.740
 4880WAT     H215183   2.874   3.884   2.898
 4881WAT      O15184   2.452   5.211   2.353
 4881WAT     H115185   2.494   5.153   2.283
 4881WAT     H215186   2.408   5.290   2.309
 4882WAT      O15187   2.117   5.072   2.152
 4882WAT     H115188   2.021   5.073   2.125
 4882WAT     H215189   2.129   5.125   2.236
 4883WAT      O15190   1.967   4.737   3.588
 4883WAT     H115191   1.890   4.704   3.642
 4883WAT     H215192   2.052   4.707   3.630
 4884WAT      O15193   1.937   4.069   1.895
 4884WAT     H115194   1.845   4.041   1.866
 4884WAT     H215195   1.968   4.146   1.839
 4885WAT      O15196   3.302   4.580   3.260
 4885WAT     H115197   3.245   4.632   3.197
 4885WAT     H215198   3.398   4.592   3.236
 4886WAT      O15199   1.934   3.890   2.180
 4886WAT     H115200   1.917   3.973   2.126
 4886WAT     H215201   2.024   3.853   2.158
 4887WAT      O15202   3.045   5.059   1.981
 4887WAT     H115203   2.946   5.048   1.983
 4887WAT     H215204   3.079   5.074   2.074
 4888WAT      O15205   2.475   4.566   3.293
 4888WAT     H115206   2.531   4.647   3.276
 4888WAT     H215207   2.534   4.486   3.296
 4889WAT      O15208   3.355   5.491   2.821
 4889WAT     H115209   3.388   5.555   2.752
 4889WAT     H215210   3.421   5.485   2.896
 4890WAT      O15211   2.578   4.289   3.570
 4890WAT     H115212   2.597   4.354   3.644
 4890WAT     H215213   2.638   4.209   3.579
 4891WAT      O15214   3.312   4.944   3.495
 4891WAT     H115215   3.303   4.934   3.594
 4891WAT     H215216   3.408   4.937   3.469
 4892WAT      O15217   2.252   5.465   3.422
 4892WAT     H115218   2.161   5.506   3.420
 4892WAT     H215219   2.245   5.371   3.454
 4893WAT      O15220   3.087   4.049   2.311
 4893WAT     H115221   3.152   3.975   2.300
 4893WAT     H215222   3.107   4.099   2.395
 4894WAT      O15223   3.592   4.658   3.379
 4894WAT     H115224   3.630   4.749   3.394
 4894WAT     H215225   3.584   4.641   3.280
 4895WAT      O15226   2.721   5.098   1.878
 4895WAT     H115227   2.675   5.113   1.966
 4895WAT     H215228   2.765   5.183   1.848
 4896WAT      O15229   2.523   5.514   2.815
 4896WAT     H115230   2.477   5.602   2.802
 4896WAT     H215231   2.622   5.526   2.808
 4897WAT      O15232   2.945   4.708   1.949
 4897WAT     H115233   2.922   4.761   1.867
 4897WAT     H215234   3.026   4.652   1.930
 4898WAT      O15235   3.723   5.293   2.713
 4898WAT     H115236   3.652   5.281   2.643
 4898WAT     H215237   3.724   5.214   2.773
 4899WAT      O15238   2.083   5.038   3.706
 4899WAT     H115239   2.018   4.965   3.685
 4899WAT     H215240   2.087   5.052   3.804
 4900WAT      O15241   1.941   4.964   2.515
 4900WAT     H115242   1.940   4.917   2.603
 4900WAT     H215243   2.023   4.936   2.464
 4901WAT      O15244   2.534   5.115   3.486
 4901WAT     H115245   2.456   5.065   3.524
 4901WAT     H215246   2.531   5.210   3.517
 4902WAT      O15247   2.290   4.148   2.382
 4902WAT     H115248   2.320   4.076   2.320
 4902WAT     H215249   2.251   4.108   2.465
 4903WAT      O15250   3.567   5.211   2.966
 4903WAT     H115251   3.474   5.186   2.939
 4903WAT     H215252   3.593   5.161   3.048
 4904WAT      O15253   2.179   4.271   3.142
 4904WAT     H115254   2.217   4.212   3.214
 4904WAT     H215255   2.219   4.245   3.054
 4905WAT      O15256   2.674   5.310   2.549
 4905WAT     H115257   2.706   5.320   2.455
 4905WAT     H215258   2.595   5.248   2.551
 4906WAT      O15259   2.863   3.758   3.016
 4906WAT     H115260   2.800   3.686   2.985
 4906WAT     H215261   2.956   3.722   3.016
 4907WAT      O15262   2.632   5.054   2.163
 4907WAT     H115263   2.586   4.967   2.180
 4907WAT     H215264   2.723   5.051   2.204
 4908WAT      O15265   2.480   5.291   3.146
 4908WAT     H115266   2.475   5.373   3.203
 4908WAT     H215267   2.569   5.288   3.101
 4909WAT      O15268   3.214   3.776   2.030
 4909WAT     H115269   3.249   3.735   1.946
 4909WAT     H215270   3.124   3.738   2.050
 4910WAT      O15271   1.901   4.801   2.162
 4910WAT     H115272   2.000   4.790   2.153
 4910WAT     H215273   1.861   4.715   2.194
 4911WAT      O15274   2.737   5.370   2.199
 4911WAT     H115275   2.660   5.335   2.145
 4911WAT     H215276   2.705   5.441   2.261
 4912WAT      O15277   2.092   4.352   3.837
 4912WAT     H115278   1.999   4.350   3.874
 4912WAT     H215279   2.093   4.313   3.745
 4913WAT      O15280   2.087   3.999   4.720
 4913WAT     H115281   2.122   3.982   4.812
 4913WAT     H215282   1.999   3.954   4.708
 4914WAT      O15283   1.881   4.092   4.371
 4914WAT     H115284   1.799   4.135   4.410
 4914WAT     H215285   1.853   4.019   4.308
 4915WAT      O15286   2.431   4.999   4.889
 4915WAT     H115287   2.338   4.992   4.852
 4915WAT     H215288   2.442   5.088   4.933
 4916WAT      O15289   3.417   5.235   4.427
 4916WAT     H115290   3.360   5.219   4.508
 4916WAT     H215291   3.358   5.245   4.347
 4917WAT      O15292   2.997   4.427   4.441
 4917WAT     H115293   3.054   4.505   4.416
 4917WAT     H215294   2.937   4.453   4.517
 4918WAT      O15295   2.630   4.868   4.747
 4918WAT     H115296   2.552   4.885   4.807
 4918WAT     H215297   2.664   4.955   4.711
 4919WAT      O15298   2.712   4.522   5.547
 4919WAT     H115299   2.708   4.598   5.612
 4919WAT     H215300   2.734   4.558   5.456
 4920WAT      O15301   2.547   4.736   4.389
 4920WAT     H115302   2.616   4.720   4.459
 4920WAT     H215303   2.474   4.793   4.427
 4921WAT      O15304   2.548   4.885   5.527
 4921WAT     H115305   2.608   4.964   5.541
 4921WAT     H215306   2.462   4.916   5.486
 4922WAT      O15307   2.197   5.159   4.785
 4922WAT     H115308   2.119   5.128   4.732
 4922WAT     H215309   2.255   5.217   4.728
 4923WAT      O15310   3.322   5.229   5.063
 4923WAT     H115311   3.346   5.323   5.089
 4923WAT     H215312   3.306   5.175   5.145
 4924WAT      O15313   2.300   4.116   5.223
 4924WAT     H115314   2.382   4.060   5.232
 4924WAT     H215315   2.219   4.058   5.227
 4925WAT      O15316   3.465   4.171   4.461
 4925WAT     H115317   3.391   4.217   4.411
 4925WAT     H215318   3.516   4.239   4.514
 4926WAT      O15319   2.093   5.437   4.207
 4926WAT     H115320   2.127   5.514   4.261
 4926WAT     H215321   2.137   5.437   4.117
 4927WAT      O15322   2.989   5.065   5.414
 4927WAT     H115323   3.036   5.065   5.502
 4927WAT     H215324   2.941   4.978   5.403
 4928WAT      O15325   2.092   5.158   4.262
 4928WAT     H115326   2.066   5.254   4.262
 4928WAT     H215327   2.021   5.104   4.307
 4929WAT      O15328   2.102   4.815   4.610
 4929WAT     H115329   2.116   4.731   4.662
 4929WAT     H215330   2.047   4.879   4.665
 4930WAT      O15331   2.482   5.510   5.163
 4930WAT     H115332   2.390   5.493   5.198
 4930WAT     H215333   2.510   5.602   5.189
 4931WAT      O15334   2.468   4.688   3.847
 4931WAT     H115335   2.475   4.772   3.793
 4931WAT     H215336   2.514   4.701   3.935
 4932WAT      O15337   3.456   3.838   5.204
 4932WAT     H115338   3.438   3.905   5.132
 4932WAT     H215339   3.453   3.884   5.293
 4933WAT      O15340   1.984   4.367   4.287
 4933WAT     H115341   1.939   4.279   4.304
 4933WAT     H215342   1.983   4.421   4.371
 4934WAT      O15343   3.704   5.491   4.083
 4934WAT     H115344   3.758   5.462   4.163
 4934WAT     H215345   3.734   5.581   4.054
 4935WAT      O15346   1.889   5.320   3.841
 4935WAT     H115347   1.870   5.224   3.862
 4935WAT     H215348   1.856   5.378   3.916
 4936WAT      O15349   3.551   4.646   4.336
 4936WAT     H115350   3.646   4.617   4.344
 4936WAT     H215351   3.543   4.711   4.261
 4937WAT      O15352   3.503   4.832   4.156
 4937WAT     H115353   3.589   4.834   4.104
 4937WAT     H215354   3.517   4.879   4.244
 4938WAT      O15355   1.975   4.461   5.321
 4938WAT     H115356   2.063   4.448   5.366
 4938WAT     H215357   1.962   4.558   5.299
 4939WAT      O15358   2.475   5.089   4.450
 4939WAT     H115359   2.426   5.002   4.459
 4939WAT     H215360   2.452   5.132   4.363
 4940WAT      O15361   3.155   4.952   5.147
 4940WAT     H115362   3.192   4.879   5.089
 4940WAT     H215363   3.207   4.957   5.232
 4941WAT      O15364   2.671   3.728   4.226
 4941WAT     H115365   2.711   3.819   4.217
 4941WAT     H215366   2.571   3.736   4.232
 4942WAT      O15367   2.059   4.700   4.988
 4942WAT     H115368   2.148   4.655   4.974
 4942WAT     H215369   1.986   4.635   4.969
 4943WAT      O15370   3.387   4.723   3.914
 4943WAT     H115371   3.324   4.647   3.927
 4943WAT     H215372   3.435   4.741   4.000
 4944WAT      O15373   3.049   5.516   5.340
 4944WAT     H115374   3.073   5.576   5.264
 4944WAT     H215375   3.056   5.421   5.310
 4945WAT      O15376   2.179   3.975   5.525
 4945WAT     H115377   2.250   4.046   5.531
 4945WAT     H215378   2.091   4.014   5.553
 4946WAT      O15379   3.328   5.141   4.677
 4946WAT     H115380   3.269   5.147   4.757
 4946WAT     H215381   3.313   5.053   4.631
 4947WAT      O15382   3.529   5.438   4.296
 4947WAT     H115383   3.488   5.415   4.208
 4947WAT     H215384   3.511   5.364   4.361
 4948WAT      O15385   2.460   4.453   3.994
 4948WAT     H115386   2.484   4.522   3.926
 4948WAT     H215387   2.382   4.486   4.048
 4949WAT      O15388   3.143   4.069   4.668
 4949WAT     H115389   3.057   4.019   4.655
 4949WAT     H215390   3.205   4.015   4.724
 4950WAT      O15391   3.438   5.386   4.031
 4950WAT     H115392   3.527   5.432   4.034
 4950WAT     H215393   3.417   5.362   3.936
 4951WAT      O15394   2.669   4.329   5.189
 4951WAT     H115395   2.622   4.326   5.278
 4951WAT     H215396   2.618   4.274   5.123
 4952WAT      O15397   3.256   4.193   5.398
 4952WAT     H115398   3.236   4.236   5.486
 4952WAT     H215399   3.334   4.131   5.407
 4953WAT      O15400   2.835   4.614   5.296
 4953WAT     H115401   2.881   4.530   5.267
 4953WAT     H215402   2.779   4.648   5.221
 4954WAT      O15403   2.853   4.134   4.966
 4954WAT     H115404   2.776   4.168   5.020
 4954WAT     H215405   2.819   4.083   4.887
 4955WAT      O15406   2.903   4.425   4.153
 4955WAT     H115407   2.929   4.421   4.249
 4955WAT     H215408   2.818   4.374   4.139
 4956WAT      O15409   1.938   4.535   4.513
 4956WAT     H115410   2.037   4.523   4.522
 4956WAT     H215411   1.914   4.630   4.534
 4957WAT      O15412   1.992   5.545   5.295
 4957WAT     H115413   1.982   5.530   5.394
 4957WAT     H215414   1.906   5.581   5.259
 4958WAT      O15415   3.581   4.309   5.555
 4958WAT     H115416   3.555   4.398   5.519
 4958WAT     H215417   3.579   4.241   5.482
 4959WAT      O15418   3.224   4.868   4.269
 4959WAT     H115419   3.307   4.839   4.221
 4959WAT     H215420   3.175   4.935   4.213
 4960WAT      O15421   2.412   3.920   4.609
 4960WAT     H115422   2.407   3.915   4.709
 4960WAT     H215423   2.414   4.016   4.580
 4961WAT      O15424   2.870   5.180   4.201
 4961WAT     H115425   2.824   5.252   4.149
 4961WAT     H215426   2.866   5.200   4.299
 4962WAT      O15427   2.213   5.525   4.577
 4962WAT     H115428   2.263   5.439   4.583
 4962WAT     H215429   2.278   5.602   4.574
 4963WAT      O15430   3.657   4.790   4.597
 4963WAT     H115431   3.595   4.775   4.521
 4963WAT     H215432   3.605   4.801   4.682
 4964WAT      O15433   3.089   5.274   5.230
 4964WAT     H115434   3.095   5.197   5.294
 4964WAT     H215435   3.037   5.248   5.150
 4965WAT      O15436   2.183   4.667   3.966
 4965WAT     H115437   2.265   4.706   3.924
 4965WAT     H215438   2.156   4.585   3.917
 4966WAT      O15439   3.320   4.459   4.452
 4966WAT     H115440   3.315   4.394   4.527
 4966WAT     H215441   3.400   4.518   4.465
 4967WAT      O15442   2.323   4.990   5.451
 4967WAT     H115443   2.273   4.991   5.365
 4967WAT     H215444   2.260   4.972   5.527
 4968WAT      O15445   2.973   5.500   3.961
 4968WAT     H115446   2.913   5.438   4.011
 4968WAT     H215447   3.004   5.456   3.876
 4969WAT      O15448   2.064   4.009   5.222
 4969WAT     H115449   1.984   4.069   5.209
 4969WAT     H215450   2.054   3.960   5.308
 4970WAT      O15451   3.494   5.101   3.805
 4970WAT     H115452   3.462   5.195   3.795
 4970WAT     H215453   3.418   5.038   3.793
 4971WAT      O15454   2.326   5.467   4.047
 4971WAT     H115455   2.359   5.506   4.133
 4971WAT     H215456   2.402   5.460   3.982
 4972WAT      O15457   2.111   5.509   4.965
 4972WAT     H115458   2.168   5.444   5.015
 4972WAT     H215459   2.095   5.476   4.872
 4973WAT      O15460   2.802   5.422   4.628
 4973WAT     H115461   2.882   5.365   4.649
 4973WAT     H215462   2.753   5.382   4.551
 4974WAT      O15463   2.244   4.424   4.204
 4974WAT     H115464   2.289   4.334   4.201
 4974WAT     H215465   2.150   4.413   4.237
 4975WAT      O15466   3.409   3.946   5.453
 4975WAT     H115467   3.404   3.983   5.545
 4975WAT     H215468   3.337   3.877   5.441
 4976WAT      O15469   2.476   3.846   3.841
 4976WAT     H115470   2.574   3.824   3.848
 4976WAT     H215471   2.445   3.829   3.748
 4977WAT      O15472   2.643   3.988   5.473
 4977WAT     H115473   2.710   3.927   5.516
 4977WAT     H215474   2.570   4.007   5.538
 4978WAT      O15475   2.750   5.238   4.919
 4978WAT     H115476   2.727   5.213   4.825
 4978WAT     H215477   2.811   5.169   4.958
 4979WAT      O15478   3.213   4.314   5.157
 4979WAT     H115479   3.241   4.271   5.242
 4979WAT     H215480   3.238   4.410   5.158
 4980WAT      O15481   2.665   5.126   4.648
 4980WAT     H115482   2.755   5.140   4.606
 4980WAT     H215483   2.594   5.128   4.577
 4981WAT      O15484   2.784   4.227   4.623
 4981WAT     H115485   2.759   4.218   4.527
 4981WAT     H215486   2.832   4.145   4.654
 4982WAT      O15487   2.401   3.788   4.236
 4982WAT     H115488   2.320   3.789   4.294
 4982WAT     H215489   2.404   3.871   4.181
 4983WAT      O15490   3.296   4.912   3.765
 4983WAT     H115491   3.328   4.836   3.822
 4983WAT     H215492   3.204   4.939   3.795
 4984WAT      O15493   2.797   3.960   4.204
 4984WAT     H115494   2.749   4.001   4.126
 4984WAT     H215495   2.896   3.958   4.185
 4985WAT      O15496   2.938   4.407   5.188
 4985WAT     H115497   2.858   4.346   5.191
 4985WAT     H215498   3.019   4.354   5.164
 4986WAT      O15499   3.089   5.294   4.517
 4986WAT     H115500   3.110   5.368   4.452
 4986WAT     H215501   3.157   5.294   4.590
 4987WAT      O15502   2.321   4.876   4.465
 4987WAT     H115503   2.250   4.849   4.530
 4987WAT     H215504   2.295   4.848   4.372
 4988WAT      O15505   3.133   5.521   4.315
 4988WAT     H115506   3.177   5.585   4.251
 4988WAT     H215507   3.083   5.573   4.385
 4989WAT      O15508   1.940   4.280   5.110
 4989WAT     H115509   2.032   4.279   5.069
 4989WAT     H215510   1.934   4.354   5.177
 4990WAT      O15511   2.423   3.946   4.871
 4990WAT     H115512   2.461   3.862   4.908
 4990WAT     H215513   2.335   3.965   4.915
 4991WAT      O15514   2.728   4.178   4.366
 4991WAT     H115515   2.696   4.250   4.304
 4991WAT     H215516   2.752   4.097   4.313
 4992WAT      O15517   2.879   3.763   4.477
 4992WAT     H115518   2.807   3.768   4.408
 4992WAT     H215519   2.855   3.694   4.546
 4993WAT      O15520   3.291   4.897   4.591
 4993WAT     H115521   3.236   4.813   4.584
 4993WAT     H215522   3.317   4.926   4.499
 4994WAT      O15523   3.328   4.314   4.716
 4994WAT     H115524   3.298   4.219   4.723
 4994WAT     H215525   3.401   4.330   4.782
 4995WAT      O15526   3.719   4.557   4.101
 4995WAT     H115527   3.761   4.493   4.165
 4995WAT     H215528   3.681   4.506   4.023
 4996WAT      O15529   2.350   5.109   3.898
 4996WAT     H115530   2.263   5.094   3.945
 4996WAT     H215531   2.333   5.135   3.803
 4997WAT      O15532   3.526   5.004   4.381
 4997WAT     H115533   3.625   5.012   4.395
 4997WAT     H215534   3.481   5.088   4.412
 4998WAT      O15535   2.389   3.980   4.052
 4998WAT     H115536   2.416   3.921   3.977
 4998WAT     H215537   2.389   4.075   4.021
 4999WAT      O15538   3.616   4.947   5.312
 4999WAT     H115539   3.707   4.908   5.299
 4999WAT     H215540   3.624   5.043   5.336
 5000WAT      O15541   2.926   5.071   5.064
 5000WAT     H115542   2.846   5.048   5.119
 5000WAT     H215543   3.009   5.045   5.113
 5001WAT      O15544   3.454   5.353   5.349
 5001WAT     H115545   3.481   5.387   5.259
 5001WAT     H215546   3.533   5.315   5.395
 5002WAT      O15547   2.973   4.919   4.824
 5002WAT     H115548   2.933   4.963   4.905
 5002WAT     H215549   2.932   4.956   4.741
 5003WAT      O15550   3.500   4.823   4.803
 5003WAT     H115551   3.505   4.904   4.862
 5003WAT     H215552   3.414   4.825   4.752
 5004WAT      O15553   2.777   3.813   5.126
 5004WAT     H115554   2.802   3.793   5.031
 5004WAT     H215555   2.849   3.869   5.168
 5005WAT      O15556   2.842   4.840   5.443
 5005WAT     H115557   2.743   4.846   5.453
 5005WAT     H215558   2.865   4.760   5.387
 5006WAT      O15559   2.567   4.774   4.092
 5006WAT     H115560   2.553   4.781   4.191
 5006WAT     H215561   2.651   4.723   4.074
 5007WAT      O15562   2.272   4.537   4.975
 5007WAT     H115563   2.358   4.549   5.025
 5007WAT     H215564   2.230   4.450   5.002
 5008WAT      O15565   3.136   4.110   4.986
 5008WAT     H115566   3.157   4.184   5.050
 5008WAT     H215567   3.047   4.127   4.943
 5009WAT      O15568   1.926   5.288   5.055
 5009WAT     H115569   1.880   5.370   5.021
 5009WAT     H215570   2.024   5.307   5.064
 5010WAT      O15571   2.229   4.824   4.225
 5010WAT     H115572   2.222   4.907   4.169
 5010WAT     H215573   2.233   4.744   4.165
 5011WAT      O15574   2.428   4.261   4.589
 5011WAT     H115575   2.440   4.327   4.515
 5011WAT     H215576   2.474   4.295   4.672
 5012WAT      O15577   3.114   5.072   4.112
 5012WAT     H115578   3.164   5.149   4.152
 5012WAT     H215579   3.019   5.074   4.144
 5013WAT      O15580   3.134   5.169   4.866
 5013WAT     H115581   3.181   5.182   4.953
 5013WAT     H215582   3.068   5.095   4.875
 5014WAT      O15583   3.444   4.363   4.196
 5014WAT     H115584   3.413   4.424   4.269
 5014WAT     H215585   3.494   4.415   4.127
 5015WAT      O15586   2.216   5.234   5.053
 5015WAT     H115587   2.195   5.190   4.966
 5015WAT     H215588   2.313   5.260   5.056
 5016WAT      O15589   2.264   4.475   5.322
 5016WAT     H115590   2.332   4.530   5.275
 5016WAT     H215591   2.304   4.387   5.349
 5017WAT      O15592   3.449   4.503   5.394
 5017WAT     H115593   3.357   4.541   5.389
 5017WAT     H215594   3.509   4.550   5.329
 5018WAT      O15595   2.875   3.829   5.494
 5018WAT     H115596   2.881   3.914   5.442
 5018WAT     H215597   2.907   3.753   5.437
 5019WAT      O15598   2.366   3.774   5.464
 5019WAT     H115599   2.324   3.717   5.394
 5019WAT     H215600   2.300   3.843   5.496
 5020WAT      O15601   2.435   4.594   4.753
 5020WAT     H115602   2.479   4.683   4.744
 5020WAT     H215603   2.372   4.594   4.830
 5021WAT      O15604   3.222   4.586   4.769
 5021WAT     H115605   3.147   4.586   4.703
 5021WAT     H215606   3.259   4.494   4.778
 5022WAT      O15607   2.169   3.937   4.955
 5022WAT     H115608   2.146   3.974   5.045
 5022WAT     H215609   2.139   3.842   4.949
 5023WAT      O15610   1.899   5.034   5.006
 5023WAT     H115611   1.952   4.985   5.074
 5023WAT     H215612   1.921   5.132   5.011
 5024WAT      O15613   2.594   4.358   4.788
 5024WAT     H115614   2.653   4.332   4.712
 5024WAT     H215615   2.566   4.454   4.777
 5025WAT      O15616   3.590   4.659   5.578
 5025WAT     H115617   3.544   4.652   5.489
 5025WAT     H215618   3.528   4.703   5.644
 5026WAT      O15619   2.169   3.787   4.342
 5026WAT     H115620   2.158   3.881   4.375
 5026WAT     H215621   2.164   3.724   4.419
 5027WAT      O15622   2.885   4.490   4.690
 5027WAT     H115623   2.900   4.511   4.786
 5027WAT     H215624   2.855   4.395   4.681
 5028WAT      O15625   2.842   5.297   5.424
 5028WAT     H115626   2.822   5.341   5.336
 5028WAT     H215627   2.881   5.206   5.408
 5029WAT      O15628   3.721   5.242   5.329
 5029WAT     H115629   3.735   5.269   5.234
 5029WAT     H215630   3.804   5.264   5.382
 5030WAT      O15631   2.212   4.622   5.528
 5030WAT     H115632   2.288   4.666   5.576
 5030WAT     H215633   2.247   4.575   5.446
 5031WAT      O15634   3.165   4.562   3.766
 5031WAT     H115635   3.199   4.469   3.781
 5031WAT     H215636   3.183   4.589   3.671
 5032WAT      O15637   2.930   5.057   4.573
 5032WAT     H115638   2.937   4.973   4.518
 5032WAT     H215639   2.992   5.126   4.537
 5033WAT      O15640   2.181   4.534   4.673
 5033WAT     H115641   2.274   4.570   4.678
 5033WAT     H215642   2.175   4.449   4.725
 5034WAT      O15643   2.201   4.233   4.730
 5034WAT     H115644   2.149   4.150   4.713
 5034WAT     H215645   2.278   4.238   4.666
 5035WAT      O15646   3.000   4.104   5.402
 5035WAT     H115647   2.955   4.167   5.466
 5035WAT     H215648   3.093   4.135   5.385
 5036WAT      O15649   3.022   3.931   5.201
 5036WAT     H115650   3.022   3.995   5.278
 5036WAT     H215651   3.050   3.979   5.118
 5037WAT      O15652   1.870   5.050   3.924
 5037WAT     H115653   1.777   5.071   3.893
 5037WAT     H215654   1.880   4.951   3.937
 5038WAT      O15655   1.950   5.525   4.651
 5038WAT     H115656   1.908   5.439   4.624
 5038WAT     H215657   2.044   5.528   4.617
 5039WAT      O15658   2.366   5.292   4.634
 5039WAT     H115659   2.432   5.366   4.643
 5039WAT     H215660   2.410   5.213   4.592
 5040WAT      O15661   2.864   4.520   4.962
 5040WAT     H115662   2.905   4.488   5.048
 5040WAT     H215663   2.768   4.493   4.959
 5041WAT      O15664   1.902   4.268   4.838
 5041WAT     H115665   1.987   4.235   4.797
 5041WAT     H215666   1.915   4.283   4.936
 5042WAT      O15667   2.051   4.244   5.446
 5042WAT     H115668   2.110   4.204   5.376
 5042WAT     H215669   1.993   4.315   5.405
 5043WAT      O15670   3.231   4.674   5.384
 5043WAT     H115671   3.270   4.763   5.404
 5043WAT     H215672   3.241   4.654   5.287
 5044WAT      O15673   2.677   4.296   4.049
 5044WAT     H115674   2.684   4.207   4.003
 5044WAT     H215675   2.583   4.330   4.041
 5045WAT      O15676   3.519   4.328   4.930
 5045WAT     H115677   3.481   4.259   4.992
 5045WAT     H215678   3.601   4.292   4.886
 5046WAT      O15679   2.114   5.288   5.468
 5046WAT     H115680   2.084   5.345   5.544
 5046WAT     H215681   2.107   5.191   5.494
 5047WAT      O15682   2.533   4.188   4.993
 5047WAT     H115683   2.499   4.099   4.963
 5047WAT     H215684   2.559   4.242   4.913
 5048WAT      O15685   2.792   5.402   5.189
 5048WAT     H115686   2.768   5.384   5.094
 5048WAT     H215687   2.822   5.496   5.199
 5049WAT      O15688   2.335   4.224   3.915
 5049WAT     H115689   2.396   4.304   3.919
 5049WAT     H215690   2.240   4.255   3.922
 5050WAT      O15691   2.021   4.861   5.190
 5050WAT     H115692   2.043   4.800   5.266
 5050WAT     H215693   2.031   4.812   5.104
 5051WAT      O15694   3.209   4.783   4.958
 5051WAT     H115695   3.233   4.720   4.884
 5051WAT     H215696   3.119   4.823   4.940
 5052WAT      O15697   3.164   4.579   4.033
 5052WAT     H115698   3.078   4.548   4.075
 5052WAT     H215699   3.160   4.565   3.934
 5053WAT      O15700   3.621   5.471   4.878
 5053WAT     H115701   3.682   5.501   4.805
 5053WAT     H215702   3.583   5.382   4.856
 5054WAT      O15703   3.114   5.455   4.852
 5054WAT     H115704   3.198   5.460   4.798
 5054WAT     H215705   3.091   5.359   4.870
 5055WAT      O15706   1.945   4.982   4.746
 5055WAT     H115707   1.940   4.981   4.846
 5055WAT     H215708   1.862   4.941   4.708
 5056WAT      O15709   2.550   5.386   5.440
 5056WAT     H115710   2.494   5.467   5.449
 5056WAT     H215711   2.602   5.390   5.354
 5057WAT      O15712   3.588   3.859   4.247
 5057WAT     H115713   3.661   3.842   4.180
 5057WAT     H215714   3.557   3.772   4.285
 5058WAT      O15715   3.250   5.297   4.201
 5058WAT     H115716   3.317   5.309   4.127
 5058WAT     H215717   3.210   5.386   4.224
 5059WAT      O15718   1.992   5.518   5.575
 5059WAT     H115719   1.951   5.444   5.628
 5059WAT     H215720   2.056   5.569   5.633
 5060WAT      O15721   3.142   4.651   4.396
 5060WAT     H115722   3.202   4.570   4.398
 5060WAT     H215723   3.182   4.720   4.336
 5061WAT      O15724   2.692   4.997   5.146
 5061WAT     H115725   2.687   5.030   5.241
 5061WAT     H215726   2.606   5.016   5.100
 5062WAT      O15727   2.534   5.340   3.878
 5062WAT     H115728   2.543   5.350   3.779
 5062WAT     H215729   2.494   5.251   3.899
 5063WAT      O15730   3.512   5.444   5.118
 5063WAT     H115731   3.565   5.454   5.034
 5063WAT     H215732   3.485   5.534   5.152
 5064WAT      O15733   3.703   3.899   4.687
 5064WAT     H115734   3.742   3.814   4.651
 5064WAT     H215735   3.605   3.901   4.668
 5065WAT      O15736   2.125   4.050   4.444
 5065WAT     H115737   2.046   4.101   4.410
 5065WAT     H215738   2.116   4.035   4.542
 5066WAT      O15739   3.056   5.336   3.755
 5066WAT     H115740   3.062   5.243   3.792
 5066WAT     H215741   2.997   5.336   3.675
 5067WAT      O15742   2.684   4.726   5.096
 5067WAT     H115743   2.724   4.725   5.004
 5067WAT     H215744   2.694   4.818   5.136
 5068WAT      O15745   2.778   4.634   4.015
 5068WAT     H115746   2.841   4.672   3.947
 5068WAT     H215747   2.818   4.551   4.054
 5069WAT      O15748   3.366   5.331   3.768
 5069WAT     H115749   3.274   5.368   3.775
 5069WAT     H215750   3.404   5.351   3.678
 5070WAT      O15751   2.234   5.012   5.214
 5070WAT     H115752   2.221   5.105   5.180
 5070WAT     H215753   2.150   4.960   5.201
 5071WAT      O15754   3.476   5.016   5.013
 5071WAT     H115755   3.536   5.019   5.093
 5071WAT     H215756   3.401   5.080   5.026
 5072WAT      O15757   2.901   4.822   4.420
 5072WAT     H115758   2.831   4.775   4.474
 5072WAT     H215759   2.960   4.754   4.377
 5073WAT      O15760   2.876   3.960   4.695
 5073WAT     H115761   2.868   3.924   4.602
 5073WAT     H215762   2.874   3.884   4.760
 5074WAT      O15763   2.452   5.211   4.215
 5074WAT     H115764   2.494   5.153   4.145
 5074WAT     H215765   2.408   5.290   4.171
 5075WAT      O15766   3.571   4.109   5.105
 5075WAT     H115767   3.644   4.178   5.109
 5075WAT     H215768   3.599   4.034   5.046
 5076WAT      O15769   2.117   5.072   4.014
 5076WAT     H115770   2.021   5.073   3.987
 5076WAT     H215771   2.129   5.125   4.098
 5077WAT      O15772   1.967   4.737   5.450
 5077WAT     H115773   1.890   4.704   5.504
 5077WAT     H215774   2.052   4.707   5.492
 5078WAT      O15775   2.534   3.927   5.213
 5078WAT     H115776   2.624   3.911   5.173
 5078WAT     H215777   2.542   3.932   5.312
 5079WAT      O15778   1.937   4.069   3.757
 5079WAT     H115779   1.845   4.041   3.728
 5079WAT     H215780   1.968   4.146   3.701
 5080WAT      O15781   3.302   4.580   5.122
 5080WAT     H115782   3.245   4.632   5.059
 5080WAT     H215783   3.398   4.592   5.098
 5081WAT      O15784   1.934   3.890   4.042
 5081WAT     H115785   1.917   3.973   3.988
 5081WAT     H215786   2.024   3.853   4.020
 5082WAT      O15787   3.045   5.059   3.843
 5082WAT     H115788   2.946   5.048   3.845
 5082WAT     H215789   3.079   5.074   3.936
 5083WAT      O15790   2.475   4.566   5.155
 5083WAT     H115791   2.531   4.647   5.138
 5083WAT     H215792   2.534   4.486   5.158
 5084WAT      O15793   3.355   5.491   4.683
 5084WAT     H115794   3.388   5.555   4.614
 5084WAT     H215795   3.421   5.485   4.758
 5085WAT      O15796   2.578   4.289   5.432
 5085WAT     H115797   2.597   4.354   5.506
 5085WAT     H215798   2.638   4.209   5.441
 5086WAT      O15799   3.312   4.944   5.357
 5086WAT     H115800   3.303   4.934   5.456
 5086WAT     H215801   3.408   4.937   5.331
 5087WAT      O15802   2.252   5.465   5.284
 5087WAT     H115803   2.161   5.506   5.282
 5087WAT     H215804   2.245   5.371   5.316
 5088WAT      O15805   3.536   4.607   4.978
 5088WAT     H115806   3.509   4.518   4.941
 5088WAT     H215807   3.537   4.675   4.905
 5089WAT      O15808   3.087   4.049   4.173
 5089WAT     H115809   3.152   3.975   4.162
 5089WAT     H215810   3.107   4.099   4.257
 5090WAT      O15811   2.456   4.469   4.376
 5090WAT     H115812   2.506   4.554   4.357
 5090WAT     H215813   2.368   4.471   4.328
 5091WAT      O15814   3.639   4.066   5.366
 5091WAT     H115815   3.622   4.097   5.272
 5091WAT     H215816   3.555   4.029   5.404
 5092WAT      O15817   3.592   4.658   5.241
 5092WAT     H115818   3.630   4.749   5.256
 5092WAT     H215819   3.584   4.641   5.142
 5093WAT      O15820   2.721   5.098   3.740
 5093WAT     H115821   2.675   5.113   3.828
 5093WAT     H215822   2.765   5.183   3.710
 5094WAT      O15823   2.523   5.514   4.677
 5094WAT     H115824   2.477   5.602   4.664
 5094WAT     H215825   2.622   5.526   4.670
 5095WAT      O15826   2.721   4.680   4.585
 5095WAT     H115827   2.775   4.611   4.633
 5095WAT     H215828   2.689   4.749   4.651
 5096WAT      O15829   2.945   4.708   3.811
 5096WAT     H115830   2.922   4.761   3.729
 5096WAT     H215831   3.026   4.652   3.792
 5097WAT      O15832   3.723   5.293   4.575
 5097WAT     H115833   3.652   5.281   4.505
 5097WAT     H215834   3.724   5.214   4.635
 5098WAT      O15835   2.083   5.038   5.568
 5098WAT     H115836   2.018   4.965   5.547
 5098WAT     H215837   2.087   5.052   5.666
 5099WAT      O15838   1.941   4.964   4.377
 5099WAT     H115839   1.940   4.917   4.465
 5099WAT     H215840   2.023   4.936   4.326
 5100WAT      O15841   2.534   5.115   5.348
 5100WAT     H115842   2.456   5.065   5.386
 5100WAT     H215843   2.531   5.210   5.379
 5101WAT      O15844   3.686   3.916   4.951
 5101WAT     H115845   3.682   3.826   4.995
 5101WAT     H215846   3.689   3.905   4.852
 5102WAT      O15847   2.290   4.148   4.244
 5102WAT     H115848   2.320   4.076   4.182
 5102WAT     H215849   2.251   4.108   4.327
 5103WAT      O15850   3.567   5.211   4.828
 5103WAT     H115851   3.474   5.186   4.801
 5103WAT     H215852   3.593   5.161   4.910
 5104WAT      O15853   2.179   4.271   5.004
 5104WAT     H115854   2.217   4.212   5.076
 5104WAT     H215855   2.219   4.245   4.916
 5105WAT      O15856   2.674   5.310   4.411
 5105WAT     H115857   2.706   5.320   4.317
 5105WAT     H215858   2.595   5.248   4.413
 5106WAT      O15859   3.286   3.938   4.836
 5106WAT     H115860   3.338   3.873   4.891
 5106WAT     H215861   3.237   4.001   4.897
 5107WAT      O15862   2.863   3.758   4.878
 5107WAT     H115863   2.800   3.686   4.847
 5107WAT     H215864   2.956   3.722   4.878
 5108WAT      O15865   2.632   5.054   4.025
 5108WAT     H115866   2.586   4.967   4.042
 5108WAT     H215867   2.723   5.051   4.066
 5109WAT      O15868   2.480   5.291   5.008
 5109WAT     H115869   2.475   5.373   5.065
 5109WAT     H215870   2.569   5.288   4.963
 5110WAT      O15871   3.162   4.177   4.415
 5110WAT     H115872   3.103   4.257   4.419
 5110WAT     H215873   3.177   4.142   4.508
 5111WAT      O15874   3.455   3.945   4.606
 5111WAT     H115875   3.371   3.944   4.660
 5111WAT     H215876   3.457   4.028   4.550
 5112WAT      O15877   1.901   4.801   4.024
 5112WAT     H115878   2.000   4.790   4.015
 5112WAT     H215879   1.861   4.715   4.056
 5113WAT      O15880   2.737   5.370   4.061
 5113WAT     H115881   2.660   5.335   4.007
 5113WAT     H215882   2.705   5.441   4.123
 5114WAT      O15883   2.092   4.352   5.699
 5114WAT     H115884   1.999   4.350   5.736
 5114WAT     H215885   2.093   4.313   5.607
 5115WAT      O15886   2.087   3.999   6.582
 5115WAT     H115887   2.122   3.982   6.674
 5115WAT     H215888   1.999   3.954   6.570
 5116WAT      O15889   1.881   4.092   6.233
 5116WAT     H115890   1.799   4.135   6.272
 5116WAT     H215891   1.853   4.019   6.170
 5117WAT      O15892   2.431   4.999   6.751
 5117WAT     H115893   2.338   4.992   6.714
 5117WAT     H215894   2.442   5.088   6.795
 5118WAT      O15895   3.417   5.235   6.289
 5118WAT     H115896   3.360   5.219   6.370
 5118WAT     H215897   3.358   5.245   6.209
 5119WAT      O15898   2.997   4.427   6.303
 5119WAT     H115899   3.054   4.505   6.278
 5119WAT     H215900   2.937   4.453   6.379
 5120WAT      O15901   3.617   4.331   5.817
 5120WAT     H115902   3.605   4.318   5.718
 5120WAT     H215903   3.587   4.250   5.866
 5121WAT      O15904   2.630   4.868   6.609
 5121WAT     H115905   2.552   4.885   6.669
 5121WAT     H215906   2.664   4.955   6.573
 5122WAT      O15907   2.547   4.736   6.251
 5122WAT     H115908   2.616   4.720   6.321
 5122WAT     H215909   2.474   4.793   6.289
 5123WAT      O15910   2.197   5.159   6.647
 5123WAT     H115911   2.119   5.128   6.594
 5123WAT     H215912   2.255   5.217   6.590
 5124WAT      O15913   3.465   4.171   6.323
 5124WAT     H115914   3.391   4.217   6.273
 5124WAT     H215915   3.516   4.239   6.376
 5125WAT      O15916   2.093   5.437   6.069
 5125WAT     H115917   2.127   5.514   6.123
 5125WAT     H215918   2.137   5.437   5.979
 5126WAT      O15919   2.092   5.158   6.124
 5126WAT     H115920   2.066   5.254   6.124
 5126WAT     H215921   2.021   5.104   6.169
 5127WAT      O15922   2.102   4.815   6.472
 5127WAT     H115923   2.116   4.731   6.524
 5127WAT     H215924   2.047   4.879   6.527
 5128WAT      O15925   2.482   5.510   7.025
 5128WAT     H115926   2.390   5.493   7.060
 5128WAT     H215927   2.510   5.602   7.051
 5129WAT      O15928   2.468   4.688   5.709
 5129WAT     H115929   2.475   4.772   5.655
 5129WAT     H215930   2.514   4.701   5.797
 5130WAT      O15931   1.984   4.367   6.149
 5130WAT     H115932   1.939   4.279   6.166
 5130WAT     H215933   1.983   4.421   6.233
 5131WAT      O15934   3.704   5.491   5.945
 5131WAT     H115935   3.758   5.462   6.025
 5131WAT     H215936   3.734   5.581   5.916
 5132WAT      O15937   1.889   5.320   5.703
 5132WAT     H115938   1.870   5.224   5.724
 5132WAT     H215939   1.856   5.378   5.778
 5133WAT      O15940   3.551   4.646   6.198
 5133WAT     H115941   3.646   4.617   6.206
 5133WAT     H215942   3.543   4.711   6.123
 5134WAT      O15943   3.503   4.832   6.018
 5134WAT     H115944   3.589   4.834   5.966
 5134WAT     H215945   3.517   4.879   6.106
 5135WAT      O15946   2.475   5.089   6.312
 5135WAT     H115947   2.426   5.002   6.321
 5135WAT     H215948   2.452   5.132   6.225
 5136WAT      O15949   2.671   3.728   6.088
 5136WAT     H115950   2.711   3.819   6.079
 5136WAT     H215951   2.571   3.736   6.094
 5137WAT      O15952   2.059   4.700   6.850
 5137WAT     H115953   2.148   4.655   6.836
 5137WAT     H215954   1.986   4.635   6.831
 5138WAT      O15955   3.387   4.723   5.776
 5138WAT     H115956   3.324   4.647   5.789
 5138WAT     H215957   3.435   4.741   5.862
 5139WAT      O15958   3.328   5.141   6.539
 5139WAT     H115959   3.269   5.147   6.619
 5139WAT     H215960   3.313   5.053   6.493
 5140WAT      O15961   3.529   5.438   6.158
 5140WAT     H115962   3.488   5.415   6.070
 5140WAT     H215963   3.511   5.364   6.223
 5141WAT      O15964   2.460   4.453   5.856
 5141WAT     H115965   2.484   4.522   5.788
 5141WAT     H215966   2.382   4.486   5.910
 5142WAT      O15967   3.143   4.069   6.530
 5142WAT     H115968   3.057   4.019   6.517
 5142WAT     H215969   3.205   4.015   6.586
 5143WAT      O15970   3.438   5.386   5.893
 5143WAT     H115971   3.527   5.432   5.896
 5143WAT     H215972   3.417   5.362   5.798
 5144WAT      O15973   2.669   4.329   7.051
 5144WAT     H115974   2.622   4.326   7.140
 5144WAT     H215975   2.618   4.274   6.985
 5145WAT      O15976   2.853   4.134   6.828
 5145WAT     H115977   2.776   4.168   6.882
 5145WAT     H215978   2.819   4.083   6.749
 5146WAT      O15979   2.903   4.425   6.015
 5146WAT     H115980   2.929   4.421   6.111
 5146WAT     H215981   2.818   4.374   6.001
 5147WAT      O15982   1.938   4.535   6.375
 5147WAT     H115983   2.037   4.523   6.384
 5147WAT     H215984   1.914   4.630   6.396
 5148WAT      O15985   1.992   5.545   7.157
 5148WAT     H115986   1.982   5.530   7.256
 5148WAT     H215987   1.906   5.581   7.121
 5149WAT      O15988   2.727   4.072   5.781
 5149WAT     H115989   2.786   4.135   5.732
 5149WAT     H215990   2.746   3.978   5.752
 5150WAT      O15991   3.224   4.868   6.131
 5150WAT     H115992   3.307   4.839   6.083
 5150WAT     H215993   3.175   4.935   6.075
 5151WAT      O15994   2.412   3.920   6.471
 5151WAT     H115995   2.407   3.915   6.571
 5151WAT     H215996   2.414   4.016   6.442
 5152WAT      O15997   2.870   5.180   6.063
 5152WAT     H115998   2.824   5.252   6.011
 5152WAT     H215999   2.866   5.200   6.161
 5153WAT      O16000   2.213   5.525   6.439
 5153WAT     H116001   2.263   5.439   6.445
 5153WAT     H216002   2.278   5.602   6.436
 5154WAT      O16003   3.657   4.790   6.459
 5154WAT     H116004   3.595   4.775   6.383
 5154WAT     H216005   3.605   4.801   6.544
 5155WAT      O16006   2.183   4.667   5.828
 5155WAT     H116007   2.265   4.706   5.786
 5155WAT     H216008   2.156   4.585   5.779
 5156WAT      O16009   3.320   4.459   6.314
 5156WAT     H116010   3.315   4.394   6.389
 5156WAT     H216011   3.400   4.518   6.327
 5157WAT      O16012   2.973   5.500   5.823
 5157WAT     H116013   2.913   5.438   5.873
 5157WAT     H216014   3.004   5.456   5.738
 5158WAT      O16015   3.494   5.101   5.667
 5158WAT     H116016   3.462   5.195   5.657
 5158WAT     H216017   3.418   5.038   5.655
 5159WAT      O16018   2.326   5.467   5.909
 5159WAT     H116019   2.359   5.506   5.995
 5159WAT     H216020   2.402   5.460   5.844
 5160WAT      O16021   3.262   3.831   6.012
 5160WAT     H116022   3.238   3.794   5.922
 5160WAT     H216023   3.361   3.847   6.016
 5161WAT      O16024   2.111   5.509   6.827
 5161WAT     H116025   2.168   5.444   6.877
 5161WAT     H216026   2.095   5.476   6.734
 5162WAT      O16027   2.802   5.422   6.490
 5162WAT     H116028   2.882   5.365   6.511
 5162WAT     H216029   2.753   5.382   6.413
 5163WAT      O16030   2.244   4.424   6.066
 5163WAT     H116031   2.289   4.334   6.063
 5163WAT     H216032   2.150   4.413   6.099
 5164WAT      O16033   2.476   3.846   5.703
 5164WAT     H116034   2.574   3.824   5.710
 5164WAT     H216035   2.445   3.829   5.610
 5165WAT      O16036   2.750   5.238   6.781
 5165WAT     H116037   2.727   5.213   6.687
 5165WAT     H216038   2.811   5.169   6.820
 5166WAT      O16039   2.665   5.126   6.510
 5166WAT     H116040   2.755   5.140   6.468
 5166WAT     H216041   2.594   5.128   6.439
 5167WAT      O16042   2.784   4.227   6.485
 5167WAT     H116043   2.759   4.218   6.389
 5167WAT     H216044   2.832   4.145   6.516
 5168WAT      O16045   2.401   3.788   6.098
 5168WAT     H116046   2.320   3.789   6.156
 5168WAT     H216047   2.404   3.871   6.043
 5169WAT      O16048   3.296   4.912   5.627
 5169WAT     H116049   3.328   4.836   5.684
 5169WAT     H216050   3.204   4.939   5.657
 5170WAT      O16051   2.159   3.759   5.757
 5170WAT     H116052   2.208   3.843   5.736
 5170WAT     H216053   2.221   3.694   5.802
 5171WAT      O16054   2.797   3.960   6.066
 5171WAT     H116055   2.749   4.001   5.988
 5171WAT     H216056   2.896   3.958   6.047
 5172WAT      O16057   3.089   5.294   6.379
 5172WAT     H116058   3.110   5.368   6.314
 5172WAT     H216059   3.157   5.294   6.452
 5173WAT      O16060   2.321   4.876   6.327
 5173WAT     H116061   2.250   4.849   6.392
 5173WAT     H216062   2.295   4.848   6.234
 5174WAT      O16063   3.133   5.521   6.177
 5174WAT     H116064   3.177   5.585   6.113
 5174WAT     H216065   3.083   5.573   6.247
 5175WAT      O16066   2.894   4.273   5.602
 5175WAT     H116067   2.853   4.355   5.563
 5175WAT     H216068   2.958   4.299   5.675
 5176WAT      O16069   2.423   3.946   6.733
 5176WAT     H116070   2.461   3.862   6.770
 5176WAT     H216071   2.335   3.965   6.777
 5177WAT      O16072   2.728   4.178   6.228
 5177WAT     H116073   2.696   4.250   6.166
 5177WAT     H216074   2.752   4.097   6.175
 5178WAT      O16075   2.879   3.763   6.339
 5178WAT     H116076   2.807   3.768   6.270
 5178WAT     H216077   2.855   3.694   6.408
 5179WAT      O16078   3.291   4.897   6.453
 5179WAT     H116079   3.236   4.813   6.446
 5179WAT     H216080   3.317   4.926   6.361
 5180WAT      O16081   3.328   4.314   6.578
 5180WAT     H116082   3.298   4.219   6.585
 5180WAT     H216083   3.401   4.330   6.644
 5181WAT      O16084   3.719   4.557   5.963
 5181WAT     H116085   3.761   4.493   6.027
 5181WAT     H216086   3.681   4.506   5.885
 5182WAT      O16087   2.350   5.109   5.760
 5182WAT     H116088   2.263   5.094   5.807
 5182WAT     H216089   2.333   5.135   5.665
 5183WAT      O16090   3.526   5.004   6.243
 5183WAT     H116091   3.625   5.012   6.257
 5183WAT     H216092   3.481   5.088   6.274
 5184WAT      O16093   3.252   4.299   5.664
 5184WAT     H116094   3.198   4.278   5.745
 5184WAT     H216095   3.343   4.258   5.673
 5185WAT      O16096   2.389   3.980   5.914
 5185WAT     H116097   2.416   3.921   5.839
 5185WAT     H216098   2.389   4.075   5.883
 5186WAT      O16099   3.616   4.947   7.174
 5186WAT     H116100   3.707   4.908   7.161
 5186WAT     H216101   3.624   5.043   7.198
 5187WAT      O16102   2.973   4.919   6.686
 5187WAT     H116103   2.933   4.963   6.767
 5187WAT     H216104   2.932   4.956   6.603
 5188WAT      O16105   3.500   4.823   6.665
 5188WAT     H116106   3.505   4.904   6.724
 5188WAT     H216107   3.414   4.825   6.614
 5189WAT      O16108   2.567   4.774   5.954
 5189WAT     H116109   2.553   4.781   6.053
 5189WAT     H216110   2.651   4.723   5.936
 5190WAT      O16111   2.272   4.537   6.837
 5190WAT     H116112   2.358   4.549   6.887
 5190WAT     H216113   2.230   4.450   6.864
 5191WAT      O16114   3.136   4.110   6.848
 5191WAT     H116115   3.157   4.184   6.912
 5191WAT     H216116   3.047   4.127   6.805
 5192WAT      O16117   1.926   5.288   6.917
 5192WAT     H116118   1.880   5.370   6.883
 5192WAT     H216119   2.024   5.307   6.926
 5193WAT      O16120   2.229   4.824   6.087
 5193WAT     H116121   2.222   4.907   6.031
 5193WAT     H216122   2.233   4.744   6.027
 5194WAT      O16123   2.428   4.261   6.451
 5194WAT     H116124   2.440   4.327   6.377
 5194WAT     H216125   2.474   4.295   6.534
 5195WAT      O16126   3.114   5.072   5.974
 5195WAT     H116127   3.164   5.149   6.014
 5195WAT     H216128   3.019   5.074   6.006
 5196WAT      O16129   3.134   5.169   6.728
 5196WAT     H116130   3.181   5.182   6.815
 5196WAT     H216131   3.068   5.095   6.737
 5197WAT      O16132   3.444   4.363   6.058
 5197WAT     H116133   3.413   4.424   6.131
 5197WAT     H216134   3.494   4.415   5.989
 5198WAT      O16135   2.216   5.234   6.915
 5198WAT     H116136   2.195   5.190   6.828
 5198WAT     H216137   2.313   5.260   6.918
 5199WAT      O16138   2.435   4.594   6.615
 5199WAT     H116139   2.479   4.683   6.606
 5199WAT     H216140   2.372   4.594   6.692
 5200WAT      O16141   3.222   4.586   6.631
 5200WAT     H116142   3.147   4.586   6.565
 5200WAT     H216143   3.259   4.494   6.640
 5201WAT      O16144   3.071   4.249   5.861
 5201WAT     H116145   3.084   4.165   5.915
 5201WAT     H216146   3.042   4.323   5.921
 5202WAT      O16147   2.169   3.937   6.817
 5202WAT     H116148   2.146   3.974   6.907
 5202WAT     H216149   2.139   3.842   6.811
 5203WAT      O16150   1.899   5.034   6.868
 5203WAT     H116151   1.952   4.985   6.936
 5203WAT     H216152   1.921   5.132   6.873
 5204WAT      O16153   2.594   4.358   6.650
 5204WAT     H116154   2.653   4.332   6.574
 5204WAT     H216155   2.566   4.454   6.639
 5205WAT      O16156   2.169   3.787   6.204
 5205WAT     H116157   2.158   3.881   6.237
 5205WAT     H216158   2.164   3.724   6.281
 5206WAT      O16159   3.484   4.091   5.960
 5206WAT     H116160   3.486   4.015   6.024
 5206WAT     H216161   3.436   4.168   6.000
 5207WAT      O16162   2.885   4.490   6.552
 5207WAT     H116163   2.900   4.511   6.648
 5207WAT     H216164   2.855   4.395   6.543
 5208WAT      O16165   3.402   3.998   5.711
 5208WAT     H116166   3.341   3.923   5.734
 5208WAT     H216167   3.424   4.050   5.794
 5209WAT      O16168   3.165   4.562   5.628
 5209WAT     H116169   3.199   4.469   5.643
 5209WAT     H216170   3.183   4.589   5.533
 5210WAT      O16171   2.930   5.057   6.435
 5210WAT     H116172   2.937   4.973   6.380
 5210WAT     H216173   2.992   5.126   6.399
 5211WAT      O16174   2.181   4.534   6.535
 5211WAT     H116175   2.274   4.570   6.540
 5211WAT     H216176   2.175   4.449   6.587
 5212WAT      O16177   2.201   4.233   6.592
 5212WAT     H116178   2.149   4.150   6.575
 5212WAT     H216179   2.278   4.238   6.528
 5213WAT      O16180   3.022   3.931   7.063
 5213WAT     H116181   3.022   3.995   7.140
 5213WAT     H216182   3.050   3.979   6.980
 5214WAT      O16183   1.870   5.050   5.786
 5214WAT     H116184   1.777   5.071   5.755
 5214WAT     H216185   1.880   4.951   5.799
 5215WAT      O16186   1.950   5.525   6.513
 5215WAT     H116187   1.908   5.439   6.486
 5215WAT     H216188   2.044   5.528   6.479
 5216WAT      O16189   2.366   5.292   6.496
 5216WAT     H116190   2.432   5.366   6.505
 5216WAT     H216191   2.410   5.213   6.454
 5217WAT      O16192   2.864   4.520   6.824
 5217WAT     H116193   2.905   4.488   6.910
 5217WAT     H216194   2.768   4.493   6.821
 5218WAT      O16195   1.902   4.268   6.700
 5218WAT     H116196   1.987   4.235   6.659
 5218WAT     H216197   1.915   4.283   6.798
 5219WAT      O16198   2.677   4.296   5.911
 5219WAT     H116199   2.684   4.207   5.865
 5219WAT     H216200   2.583   4.330   5.903
 5220WAT      O16201   3.519   4.328   6.792
 5220WAT     H116202   3.481   4.259   6.854
 5220WAT     H216203   3.601   4.292   6.748
 5221WAT      O16204   2.533   4.188   6.855
 5221WAT     H116205   2.499   4.099   6.825
 5221WAT     H216206   2.559   4.242   6.775
 5222WAT      O16207   2.792   5.402   7.051
 5222WAT     H116208   2.768   5.384   6.956
 5222WAT     H216209   2.822   5.496   7.061
 5223WAT      O16210   2.335   4.224   5.777
 5223WAT     H116211   2.396   4.304   5.781
 5223WAT     H216212   2.240   4.255   5.784
 5224WAT      O16213   2.021   4.861   7.052
 5224WAT     H116214   2.043   4.800   7.128
 5224WAT     H216215   2.031   4.812   6.966
 5225WAT      O16216   3.209   4.783   6.820
 5225WAT     H116217   3.233   4.720   6.746
 5225WAT     H216218   3.119   4.823   6.802
 5226WAT      O16219   3.164   4.579   5.895
 5226WAT     H116220   3.078   4.548   5.937
 5226WAT     H216221   3.160   4.565   5.796
 5227WAT      O16222   3.621   5.471   6.740
 5227WAT     H116223   3.682   5.501   6.667
 5227WAT     H216224   3.583   5.382   6.718
 5228WAT      O16225   3.114   5.455   6.714
 5228WAT     H116226   3.198   5.460   6.660
 5228WAT     H216227   3.091   5.359   6.732
 5229WAT      O16228   1.945   4.982   6.608
 5229WAT     H116229   1.940   4.981   6.708
 5229WAT     H216230   1.862   4.941   6.570
 5230WAT      O16231   3.588   3.859   6.109
 5230WAT     H116232   3.661   3.842   6.042
 5230WAT     H216233   3.557   3.772   6.147
 5231WAT      O16234   3.250   5.297   6.063
 5231WAT     H116235   3.317   5.309   5.989
 5231WAT     H216236   3.210   5.386   6.086
 5232WAT      O16237   3.142   4.651   6.258
 5232WAT     H116238   3.202   4.570   6.260
 5232WAT     H216239   3.182   4.720   6.198
 5233WAT      O16240   2.534   5.340   5.740
 5233WAT     H116241   2.543   5.350   5.641
 5233WAT     H216242   2.494   5.251   5.761
 5234WAT      O16243   3.703   3.899   6.549
 5234WAT     H116244   3.742   3.814   6.513
 5234WAT     H216245   3.605   3.901   6.530
 5235WAT      O16246   2.125   4.050   6.306
 5235WAT     H116247   2.046   4.101   6.272
 5235WAT     H216248   2.116   4.035   6.404
 5236WAT      O16249   3.056   5.336   5.617
 5236WAT     H116250   3.062   5.243   5.654
 5236WAT     H216251   2.997   5.336   5.537
 5237WAT      O16252   2.684   4.726   6.958
 5237WAT     H116253   2.724   4.725   6.866
 5237WAT     H216254   2.694   4.818   6.998
 5238WAT      O16255   2.778   4.634   5.877
 5238WAT     H116256   2.841   4.672   5.809
 5238WAT     H216257   2.818   4.551   5.916
 5239WAT      O16258   3.366   5.331   5.630
 5239WAT     H116259   3.274   5.368   5.637
 5239WAT     H216260   3.404   5.351   5.540
 5240WAT      O16261   3.476   5.016   6.875
 5240WAT     H116262   3.536   5.019   6.955
 5240WAT     H216263   3.401   5.080   6.888
 5241WAT      O16264   2.901   4.822   6.282
 5241WAT     H116265   2.831   4.775   6.336
 5241WAT     H216266   2.960   4.754   6.239
 5242WAT      O16267   2.876   3.960   6.557
 5242WAT     H116268   2.868   3.924   6.464
 5242WAT     H216269   2.874   3.884   6.622
 5243WAT      O16270   2.452   5.211   6.077
 5243WAT     H116271   2.494   5.153   6.007
 5243WAT     H216272   2.408   5.290   6.033
 5244WAT      O16273   3.571   4.109   6.967
 5244WAT     H116274   3.644   4.178   6.971
 5244WAT     H216275   3.599   4.034   6.908
 5245WAT      O16276   2.117   5.072   5.876
 5245WAT     H116277   2.021   5.073   5.849
 5245WAT     H216278   2.129   5.125   5.960
 5246WAT      O16279   2.534   3.927   7.075
 5246WAT     H116280   2.624   3.911   7.035
 5246WAT     H216281   2.542   3.932   7.174
 5247WAT      O16282   1.937   4.069   5.619
 5247WAT     H116283   1.845   4.041   5.590
 5247WAT     H216284   1.968   4.146   5.563
 5248WAT      O16285   1.934   3.890   5.904
 5248WAT     H116286   1.917   3.973   5.850
 5248WAT     H216287   2.024   3.853   5.882
 5249WAT      O16288   3.045   5.059   5.705
 5249WAT     H116289   2.946   5.048   5.707
 5249WAT     H216290   3.079   5.074   5.798
 5250WAT      O16291   3.355   5.491   6.545
 5250WAT     H116292   3.388   5.555   6.476
 5250WAT     H216293   3.421   5.485   6.620
 5251WAT      O16294   3.312   4.944   7.219
 5251WAT     H116295   3.303   4.934   7.318
 5251WAT     H216296   3.408   4.937   7.193
 5252WAT      O16297   2.252   5.465   7.146
 5252WAT     H116298   2.161   5.506   7.144
 5252WAT     H216299   2.245   5.371   7.178
 5253WAT      O16300   3.536   4.607   6.840
 5253WAT     H116301   3.509   4.518   6.803
 5253WAT     H216302   3.537   4.675   6.767
 5254WAT      O16303   3.087   4.049   6.035
 5254WAT     H116304   3.152   3.975   6.024
 5254WAT     H216305   3.107   4.099   6.119
 5255WAT      O16306   2.456   4.469   6.238
 5255WAT     H116307   2.506   4.554   6.219
 5255WAT     H216308   2.368   4.471   6.190
 5256WAT      O16309   3.592   4.658   7.103
 5256WAT     H116310   3.630   4.749   7.118
 5256WAT     H216311   3.584   4.641   7.004
 5257WAT      O16312   2.721   5.098   5.602
 5257WAT     H116313   2.675   5.113   5.690
 5257WAT     H216314   2.765   5.183   5.572
 5258WAT      O16315   2.523   5.514   6.539
 5258WAT     H116316   2.477   5.602   6.526
 5258WAT     H216317   2.622   5.526   6.532
 5259WAT      O16318   2.721   4.680   6.447
 5259WAT     H116319   2.775   4.611   6.495
 5259WAT     H216320   2.689   4.749   6.513
 5260WAT      O16321   2.945   4.708   5.673
 5260WAT     H116322   2.922   4.761   5.591
 5260WAT     H216323   3.026   4.652   5.654
 5261WAT      O16324   3.723   5.293   6.437
 5261WAT     H116325   3.652   5.281   6.367
 5261WAT     H216326   3.724   5.214   6.497
 5262WAT      O16327   1.941   4.964   6.239
 5262WAT     H116328   1.940   4.917   6.327
 5262WAT     H216329   2.023   4.936   6.188
 5263WAT      O16330   3.686   3.916   6.813
 5263WAT     H116331   3.682   3.826   6.857
 5263WAT     H216332   3.689   3.905   6.714
 5264WAT      O16333   2.290   4.148   6.106
 5264WAT     H116334   2.320   4.076   6.044
 5264WAT     H216335   2.251   4.108   6.189
 5265WAT      O16336   3.567   5.211   6.690
 5265WAT     H116337   3.474   5.186   6.663
 5265WAT     H216338   3.593   5.161   6.772
 5266WAT      O16339   2.179   4.271   6.866
 5266WAT     H116340   2.217   4.212   6.938
 5266WAT     H216341   2.219   4.245   6.778
 5267WAT      O16342   2.674   5.310   6.273
 5267WAT     H116343   2.706   5.320   6.179
 5267WAT     H216344   2.595   5.248   6.275
 5268WAT      O16345   3.286   3.938   6.698
 5268WAT     H116346   3.338   3.873   6.753
 5268WAT     H216347   3.237   4.001   6.759
 5269WAT      O16348   2.863   3.758   6.740
 5269WAT     H116349   2.800   3.686   6.709
 5269WAT     H216350   2.956   3.722   6.740
 5270WAT      O16351   2.632   5.054   5.887
 5270WAT     H116352   2.586   4.967   5.904
 5270WAT     H216353   2.723   5.051   5.928
 5271WAT      O16354   2.480   5.291   6.870
 5271WAT     H116355   2.475   5.373   6.927
 5271WAT     H216356   2.569   5.288   6.825
 5272WAT      O16357   3.214   3.776   5.754
 5272WAT     H116358   3.249   3.735   5.670
 5272WAT     H216359   3.124   3.738   5.774
 5273WAT      O16360   3.162   4.177   6.277
 5273WAT     H116361   3.103   4.257   6.281
 5273WAT     H216362   3.177   4.142   6.370
 5274WAT      O16363   3.455   3.945   6.468
 5274WAT     H116364   3.371   3.944   6.522
 5274WAT     H216365   3.457   4.028   6.412
 5275WAT      O16366   1.901   4.801   5.886
 5275WAT     H116367   2.000   4.790   5.877
 5275WAT     H216368   1.861   4.715   5.918
 5276WAT      O16369   2.737   5.370   5.923
 5276WAT     H116370   2.660   5.335   5.869
 5276WAT     H216371   2.705   5.441   5.985
 5277WAT      O16372   2.092   6.214   0.113
 5277WAT     H116373   1.999   6.212   0.150
 5277WAT     H216374   2.093   6.175   0.021
 5278WAT      O16375   2.087   5.861   0.996
 5278WAT     H116376   2.122   5.844   1.088
 5278WAT     H216377   1.999   5.816   0.984
 5279WAT      O16378   1.881   5.954   0.647
 5279WAT     H116379   1.799   5.997   0.686
 5279WAT     H216380   1.853   5.881   0.584
 5280WAT      O16381   2.431   6.861   1.165
 5280WAT     H116382   2.338   6.854   1.128
 5280WAT     H216383   2.442   6.950   1.209
 5281WAT      O16384   3.417   7.097   0.703
 5281WAT     H116385   3.360   7.081   0.784
 5281WAT     H216386   3.358   7.107   0.623
 5282WAT      O16387   2.997   6.289   0.717
 5282WAT     H116388   3.054   6.367   0.692
 5282WAT     H216389   2.937   6.315   0.793
 5283WAT      O16390   3.617   6.193   0.231
 5283WAT     H116391   3.605   6.180   0.132
 5283WAT     H216392   3.587   6.112   0.280
 5284WAT      O16393   2.630   6.730   1.023
 5284WAT     H116394   2.552   6.747   1.083
 5284WAT     H216395   2.664   6.817   0.987
 5285WAT      O16396   2.712   6.384   1.823
 5285WAT     H116397   2.708   6.460   1.888
 5285WAT     H216398   2.734   6.420   1.732
 5286WAT      O16399   2.547   6.598   0.665
 5286WAT     H116400   2.616   6.582   0.735
 5286WAT     H216401   2.474   6.655   0.703
 5287WAT      O16402   2.548   6.747   1.803
 5287WAT     H116403   2.608   6.826   1.817
 5287WAT     H216404   2.462   6.778   1.762
 5288WAT      O16405   2.197   7.021   1.061
 5288WAT     H116406   2.119   6.990   1.008
 5288WAT     H216407   2.255   7.079   1.004
 5289WAT      O16408   2.300   5.978   1.499
 5289WAT     H116409   2.382   5.922   1.508
 5289WAT     H216410   2.219   5.920   1.503
 5290WAT      O16411   3.465   6.033   0.737
 5290WAT     H116412   3.391   6.079   0.687
 5290WAT     H216413   3.516   6.101   0.790
 5291WAT      O16414   2.102   6.677   0.886
 5291WAT     H116415   2.116   6.593   0.938
 5291WAT     H216416   2.047   6.741   0.941
 5292WAT      O16417   2.468   6.550   0.123
 5292WAT     H116418   2.475   6.634   0.069
 5292WAT     H216419   2.514   6.563   0.211
 5293WAT      O16420   3.456   5.700   1.480
 5293WAT     H116421   3.438   5.767   1.408
 5293WAT     H216422   3.453   5.746   1.569
 5294WAT      O16423   1.984   6.229   0.563
 5294WAT     H116424   1.939   6.141   0.580
 5294WAT     H216425   1.983   6.283   0.647
 5295WAT      O16426   3.551   6.508   0.612
 5295WAT     H116427   3.646   6.479   0.620
 5295WAT     H216428   3.543   6.573   0.537
 5296WAT      O16429   3.503   6.694   0.432
 5296WAT     H116430   3.589   6.696   0.380
 5296WAT     H216431   3.517   6.741   0.520
 5297WAT      O16432   1.975   6.323   1.597
 5297WAT     H116433   2.063   6.310   1.642
 5297WAT     H216434   1.962   6.420   1.575
 5298WAT      O16435   3.155   6.814   1.423
 5298WAT     H116436   3.192   6.741   1.365
 5298WAT     H216437   3.207   6.819   1.508
 5299WAT      O16438   2.671   5.590   0.502
 5299WAT     H116439   2.711   5.681   0.493
 5299WAT     H216440   2.571   5.598   0.508
 5300WAT      O16441   2.059   6.562   1.264
 5300WAT     H116442   2.148   6.517   1.250
 5300WAT     H216443   1.986   6.497   1.245
 5301WAT      O16444   3.387   6.585   0.190
 5301WAT     H116445   3.324   6.509   0.203
 5301WAT     H216446   3.435   6.603   0.276
 5302WAT      O16447   2.179   5.837   1.801
 5302WAT     H116448   2.250   5.908   1.807
 5302WAT     H216449   2.091   5.876   1.829
 5303WAT      O16450   3.328   7.003   0.953
 5303WAT     H116451   3.269   7.009   1.033
 5303WAT     H216452   3.313   6.915   0.907
 5304WAT      O16453   2.460   6.315   0.270
 5304WAT     H116454   2.484   6.384   0.202
 5304WAT     H216455   2.382   6.348   0.324
 5305WAT      O16456   3.143   5.931   0.944
 5305WAT     H116457   3.057   5.881   0.931
 5305WAT     H216458   3.205   5.877   1.000
 5306WAT      O16459   2.669   6.191   1.465
 5306WAT     H116460   2.622   6.188   1.554
 5306WAT     H216461   2.618   6.136   1.399
 5307WAT      O16462   3.256   6.055   1.674
 5307WAT     H116463   3.236   6.098   1.762
 5307WAT     H216464   3.334   5.993   1.683
 5308WAT      O16465   2.835   6.476   1.572
 5308WAT     H116466   2.881   6.392   1.543
 5308WAT     H216467   2.779   6.510   1.497
 5309WAT      O16468   2.853   5.996   1.242
 5309WAT     H116469   2.776   6.030   1.296
 5309WAT     H216470   2.819   5.945   1.163
 5310WAT      O16471   2.903   6.287   0.429
 5310WAT     H116472   2.929   6.283   0.525
 5310WAT     H216473   2.818   6.236   0.415
 5311WAT      O16474   1.938   6.397   0.789
 5311WAT     H116475   2.037   6.385   0.798
 5311WAT     H216476   1.914   6.492   0.810
 5312WAT      O16477   2.727   5.934   0.195
 5312WAT     H116478   2.786   5.997   0.146
 5312WAT     H216479   2.746   5.840   0.166
 5313WAT      O16480   3.581   6.171   1.831
 5313WAT     H116481   3.555   6.260   1.795
 5313WAT     H216482   3.579   6.103   1.758
 5314WAT      O16483   3.224   6.730   0.545
 5314WAT     H116484   3.307   6.701   0.497
 5314WAT     H216485   3.175   6.797   0.489
 5315WAT      O16486   2.412   5.782   0.885
 5315WAT     H116487   2.407   5.777   0.985
 5315WAT     H216488   2.414   5.878   0.856
 5316WAT      O16489   3.657   6.652   0.873
 5316WAT     H116490   3.595   6.637   0.797
 5316WAT     H216491   3.605   6.663   0.958
 5317WAT      O16492   2.183   6.529   0.242
 5317WAT     H116493   2.265   6.568   0.200
 5317WAT     H216494   2.156   6.447   0.193
 5318WAT      O16495   3.320   6.321   0.728
 5318WAT     H116496   3.315   6.256   0.803
 5318WAT     H216497   3.400   6.380   0.741
 5319WAT      O16498   2.064   5.871   1.498
 5319WAT     H116499   1.984   5.931   1.485
 5319WAT     H216500   2.054   5.822   1.584
 5320WAT      O16501   3.494   6.963   0.081
 5320WAT     H116502   3.462   7.057   0.071
 5320WAT     H216503   3.418   6.900   0.069
 5321WAT      O16504   2.244   6.286   0.480
 5321WAT     H116505   2.289   6.196   0.477
 5321WAT     H216506   2.150   6.275   0.513
 5322WAT      O16507   3.409   5.808   1.729
 5322WAT     H116508   3.404   5.845   1.821
 5322WAT     H216509   3.337   5.739   1.717
 5323WAT      O16510   2.643   5.850   1.749
 5323WAT     H116511   2.710   5.789   1.792
 5323WAT     H216512   2.570   5.869   1.814
 5324WAT      O16513   3.213   6.176   1.433
 5324WAT     H116514   3.241   6.133   1.518
 5324WAT     H216515   3.238   6.272   1.434
 5325WAT      O16516   2.784   6.089   0.899
 5325WAT     H116517   2.759   6.080   0.803
 5325WAT     H216518   2.832   6.007   0.930
 5326WAT      O16519   2.401   5.650   0.512
 5326WAT     H116520   2.320   5.651   0.570
 5326WAT     H216521   2.404   5.733   0.457
 5327WAT      O16522   3.296   6.774   0.041
 5327WAT     H116523   3.328   6.698   0.098
 5327WAT     H216524   3.204   6.801   0.071
 5328WAT      O16525   2.797   5.822   0.480
 5328WAT     H116526   2.749   5.863   0.402
 5328WAT     H216527   2.896   5.820   0.461
 5329WAT      O16528   2.938   6.269   1.464
 5329WAT     H116529   2.858   6.208   1.467
 5329WAT     H216530   3.019   6.216   1.440
 5330WAT      O16531   3.089   7.156   0.793
 5330WAT     H116532   3.110   7.230   0.728
 5330WAT     H216533   3.157   7.156   0.866
 5331WAT      O16534   2.321   6.738   0.741
 5331WAT     H116535   2.250   6.711   0.806
 5331WAT     H216536   2.295   6.710   0.648
 5332WAT      O16537   2.894   6.135   0.016
 5332WAT     H116538   2.853   6.217  -0.023
 5332WAT     H216539   2.958   6.161   0.089
 5333WAT      O16540   1.940   6.142   1.386
 5333WAT     H116541   2.032   6.141   1.345
 5333WAT     H216542   1.934   6.216   1.453
 5334WAT      O16543   2.423   5.808   1.147
 5334WAT     H116544   2.461   5.724   1.184
 5334WAT     H216545   2.335   5.827   1.191
 5335WAT      O16546   2.728   6.040   0.642
 5335WAT     H116547   2.696   6.112   0.580
 5335WAT     H216548   2.752   5.959   0.589
 5336WAT      O16549   2.879   5.625   0.753
 5336WAT     H116550   2.807   5.630   0.684
 5336WAT     H216551   2.855   5.556   0.822
 5337WAT      O16552   3.291   6.759   0.867
 5337WAT     H116553   3.236   6.675   0.860
 5337WAT     H216554   3.317   6.788   0.775
 5338WAT      O16555   3.328   6.176   0.992
 5338WAT     H116556   3.298   6.081   0.999
 5338WAT     H216557   3.401   6.192   1.058
 5339WAT      O16558   3.719   6.419   0.377
 5339WAT     H116559   3.761   6.355   0.441
 5339WAT     H216560   3.681   6.368   0.299
 5340WAT      O16561   3.526   6.866   0.657
 5340WAT     H116562   3.625   6.874   0.671
 5340WAT     H216563   3.481   6.950   0.688
 5341WAT      O16564   3.252   6.161   0.078
 5341WAT     H116565   3.198   6.140   0.159
 5341WAT     H216566   3.343   6.120   0.087
 5342WAT      O16567   2.389   5.842   0.328
 5342WAT     H116568   2.416   5.783   0.253
 5342WAT     H216569   2.389   5.937   0.297
 5343WAT      O16570   3.616   6.809   1.588
 5343WAT     H116571   3.707   6.770   1.575
 5343WAT     H216572   3.624   6.905   1.612
 5344WAT      O16573   2.926   6.933   1.340
 5344WAT     H116574   2.846   6.910   1.395
 5344WAT     H216575   3.009   6.907   1.389
 5345WAT      O16576   2.973   6.781   1.100
 5345WAT     H116577   2.933   6.825   1.181
 5345WAT     H216578   2.932   6.818   1.017
 5346WAT      O16579   3.500   6.685   1.079
 5346WAT     H116580   3.505   6.766   1.138
 5346WAT     H216581   3.414   6.687   1.028
 5347WAT      O16582   2.777   5.675   1.402
 5347WAT     H116583   2.802   5.655   1.307
 5347WAT     H216584   2.849   5.731   1.444
 5348WAT      O16585   2.842   6.702   1.719
 5348WAT     H116586   2.743   6.708   1.729
 5348WAT     H216587   2.865   6.622   1.663
 5349WAT      O16588   2.567   6.636   0.368
 5349WAT     H116589   2.553   6.643   0.467
 5349WAT     H216590   2.651   6.585   0.350
 5350WAT      O16591   2.272   6.399   1.251
 5350WAT     H116592   2.358   6.411   1.301
 5350WAT     H216593   2.230   6.312   1.278
 5351WAT      O16594   3.136   5.972   1.262
 5351WAT     H116595   3.157   6.046   1.326
 5351WAT     H216596   3.047   5.989   1.219
 5352WAT      O16597   2.229   6.686   0.501
 5352WAT     H116598   2.222   6.769   0.445
 5352WAT     H216599   2.233   6.606   0.441
 5353WAT      O16600   2.428   6.123   0.865
 5353WAT     H116601   2.440   6.189   0.791
 5353WAT     H216602   2.474   6.157   0.948
 5354WAT      O16603   3.444   6.225   0.472
 5354WAT     H116604   3.413   6.286   0.545
 5354WAT     H216605   3.494   6.277   0.403
 5355WAT      O16606   2.264   6.337   1.598
 5355WAT     H116607   2.332   6.392   1.551
 5355WAT     H216608   2.304   6.249   1.625
 5356WAT      O16609   3.449   6.365   1.670
 5356WAT     H116610   3.357   6.403   1.665
 5356WAT     H216611   3.509   6.412   1.605
 5357WAT      O16612   2.875   5.691   1.770
 5357WAT     H116613   2.881   5.776   1.718
 5357WAT     H216614   2.907   5.615   1.713
 5358WAT      O16615   2.366   5.636   1.740
 5358WAT     H116616   2.324   5.579   1.670
 5358WAT     H216617   2.300   5.705   1.772
 5359WAT      O16618   2.435   6.456   1.029
 5359WAT     H116619   2.479   6.545   1.020
 5359WAT     H216620   2.372   6.456   1.106
 5360WAT      O16621   3.222   6.448   1.045
 5360WAT     H116622   3.147   6.448   0.979
 5360WAT     H216623   3.259   6.356   1.054
 5361WAT      O16624   3.071   6.111   0.275
 5361WAT     H116625   3.084   6.027   0.329
 5361WAT     H216626   3.042   6.185   0.335
 5362WAT      O16627   2.169   5.799   1.231
 5362WAT     H116628   2.146   5.836   1.321
 5362WAT     H216629   2.139   5.704   1.225
 5363WAT      O16630   1.899   6.896   1.282
 5363WAT     H116631   1.952   6.847   1.350
 5363WAT     H216632   1.921   6.994   1.287
 5364WAT      O16633   2.594   6.220   1.064
 5364WAT     H116634   2.653   6.194   0.988
 5364WAT     H216635   2.566   6.316   1.053
 5365WAT      O16636   3.590   6.521   1.854
 5365WAT     H116637   3.544   6.514   1.765
 5365WAT     H216638   3.528   6.565   1.920
 5366WAT      O16639   2.169   5.649   0.618
 5366WAT     H116640   2.158   5.743   0.651
 5366WAT     H216641   2.164   5.586   0.695
 5367WAT      O16642   3.484   5.953   0.374
 5367WAT     H116643   3.486   5.877   0.438
 5367WAT     H216644   3.436   6.030   0.414
 5368WAT      O16645   2.885   6.352   0.966
 5368WAT     H116646   2.900   6.373   1.062
 5368WAT     H216647   2.855   6.257   0.957
 5369WAT      O16648   3.721   7.104   1.605
 5369WAT     H116649   3.735   7.131   1.510
 5369WAT     H216650   3.804   7.126   1.658
 5370WAT      O16651   2.212   6.484   1.804
 5370WAT     H116652   2.288   6.528   1.852
 5370WAT     H216653   2.247   6.437   1.722
 5371WAT      O16654   3.402   5.860   0.125
 5371WAT     H116655   3.341   5.785   0.148
 5371WAT     H216656   3.424   5.912   0.208
 5372WAT      O16657   3.165   6.424   0.042
 5372WAT     H116658   3.199   6.331   0.057
 5372WAT     H216659   3.183   6.451  -0.053
 5373WAT      O16660   2.181   6.396   0.949
 5373WAT     H116661   2.274   6.432   0.954
 5373WAT     H216662   2.175   6.311   1.001
 5374WAT      O16663   2.201   6.095   1.006
 5374WAT     H116664   2.149   6.012   0.989
 5374WAT     H216665   2.278   6.100   0.942
 5375WAT      O16666   3.000   5.966   1.678
 5375WAT     H116667   2.955   6.029   1.742
 5375WAT     H216668   3.093   5.997   1.661
 5376WAT      O16669   3.022   5.793   1.477
 5376WAT     H116670   3.022   5.857   1.554
 5376WAT     H216671   3.050   5.841   1.394
 5377WAT      O16672   2.864   6.382   1.238
 5377WAT     H116673   2.905   6.350   1.324
 5377WAT     H216674   2.768   6.355   1.235
 5378WAT      O16675   1.902   6.130   1.114
 5378WAT     H116676   1.987   6.097   1.073
 5378WAT     H216677   1.915   6.145   1.212
 5379WAT      O16678   2.051   6.106   1.722
 5379WAT     H116679   2.110   6.066   1.652
 5379WAT     H216680   1.993   6.177   1.681
 5380WAT      O16681   3.231   6.536   1.660
 5380WAT     H116682   3.270   6.625   1.680
 5380WAT     H216683   3.241   6.516   1.563
 5381WAT      O16684   2.677   6.158   0.325
 5381WAT     H116685   2.684   6.069   0.279
 5381WAT     H216686   2.583   6.192   0.317
 5382WAT      O16687   3.519   6.190   1.206
 5382WAT     H116688   3.481   6.121   1.268
 5382WAT     H216689   3.601   6.154   1.162
 5383WAT      O16690   2.533   6.050   1.269
 5383WAT     H116691   2.499   5.961   1.239
 5383WAT     H216692   2.559   6.104   1.189
 5384WAT      O16693   2.335   6.086   0.191
 5384WAT     H116694   2.396   6.166   0.195
 5384WAT     H216695   2.240   6.117   0.198
 5385WAT      O16696   2.021   6.723   1.466
 5385WAT     H116697   2.043   6.662   1.542
 5385WAT     H216698   2.031   6.674   1.380
 5386WAT      O16699   3.209   6.645   1.234
 5386WAT     H116700   3.233   6.582   1.160
 5386WAT     H216701   3.119   6.685   1.216
 5387WAT      O16702   3.164   6.441   0.309
 5387WAT     H116703   3.078   6.410   0.351
 5387WAT     H216704   3.160   6.427   0.210
 5388WAT      O16705   1.945   6.844   1.022
 5388WAT     H116706   1.940   6.843   1.122
 5388WAT     H216707   1.862   6.803   0.984
 5389WAT      O16708   2.765   5.672   0.133
 5389WAT     H116709   2.816   5.673   0.047
 5389WAT     H216710   2.821   5.630   0.204
 5390WAT      O16711   3.588   5.721   0.523
 5390WAT     H116712   3.661   5.704   0.456
 5390WAT     H216713   3.557   5.634   0.561
 5391WAT      O16714   3.142   6.513   0.672
 5391WAT     H116715   3.202   6.432   0.674
 5391WAT     H216716   3.182   6.582   0.612
 5392WAT      O16717   2.692   6.859   1.422
 5392WAT     H116718   2.687   6.892   1.517
 5392WAT     H216719   2.606   6.878   1.376
 5393WAT      O16720   3.703   5.761   0.963
 5393WAT     H116721   3.742   5.676   0.927
 5393WAT     H216722   3.605   5.763   0.944
 5394WAT      O16723   2.125   5.912   0.720
 5394WAT     H116724   2.046   5.963   0.686
 5394WAT     H216725   2.116   5.897   0.818
 5395WAT      O16726   2.684   6.588   1.372
 5395WAT     H116727   2.724   6.587   1.280
 5395WAT     H216728   2.694   6.680   1.412
 5396WAT      O16729   2.778   6.496   0.291
 5396WAT     H116730   2.841   6.534   0.223
 5396WAT     H216731   2.818   6.413   0.330
 5397WAT      O16732   2.234   6.874   1.490
 5397WAT     H116733   2.221   6.967   1.456
 5397WAT     H216734   2.150   6.822   1.477
 5398WAT      O16735   3.476   6.878   1.289
 5398WAT     H116736   3.536   6.881   1.369
 5398WAT     H216737   3.401   6.942   1.302
 5399WAT      O16738   2.901   6.684   0.696
 5399WAT     H116739   2.831   6.637   0.750
 5399WAT     H216740   2.960   6.616   0.653
 5400WAT      O16741   2.876   5.822   0.971
 5400WAT     H116742   2.868   5.786   0.878
 5400WAT     H216743   2.874   5.746   1.036
 5401WAT      O16744   3.571   5.971   1.381
 5401WAT     H116745   3.644   6.040   1.385
 5401WAT     H216746   3.599   5.896   1.322
 5402WAT      O16747   1.967   6.599   1.726
 5402WAT     H116748   1.890   6.566   1.780
 5402WAT     H216749   2.052   6.569   1.768
 5403WAT      O16750   2.534   5.789   1.489
 5403WAT     H116751   2.624   5.773   1.449
 5403WAT     H216752   2.542   5.794   1.588
 5404WAT      O16753   1.937   5.931   0.033
 5404WAT     H116754   1.845   5.903   0.004
 5404WAT     H216755   1.968   6.008  -0.023
 5405WAT      O16756   3.302   6.442   1.398
 5405WAT     H116757   3.245   6.494   1.335
 5405WAT     H216758   3.398   6.454   1.374
 5406WAT      O16759   1.934   5.752   0.318
 5406WAT     H116760   1.917   5.835   0.264
 5406WAT     H216761   2.024   5.715   0.296
 5407WAT      O16762   2.475   6.428   1.431
 5407WAT     H116763   2.531   6.509   1.414
 5407WAT     H216764   2.534   6.348   1.434
 5408WAT      O16765   2.578   6.151   1.708
 5408WAT     H116766   2.597   6.216   1.782
 5408WAT     H216767   2.638   6.071   1.717
 5409WAT      O16768   3.312   6.806   1.633
 5409WAT     H116769   3.303   6.796   1.732
 5409WAT     H216770   3.408   6.799   1.607
 5410WAT      O16771   3.536   6.469   1.254
 5410WAT     H116772   3.509   6.380   1.217
 5410WAT     H216773   3.537   6.537   1.181
 5411WAT      O16774   3.087   5.911   0.449
 5411WAT     H116775   3.152   5.837   0.438
 5411WAT     H216776   3.107   5.961   0.533
 5412WAT      O16777   2.456   6.331   0.652
 5412WAT     H116778   2.506   6.416   0.633
 5412WAT     H216779   2.368   6.333   0.604
 5413WAT      O16780   3.639   5.928   1.642
 5413WAT     H116781   3.622   5.959   1.548
 5413WAT     H216782   3.555   5.891   1.680
 5414WAT      O16783   3.592   6.520   1.517
 5414WAT     H116784   3.630   6.611   1.532
 5414WAT     H216785   3.584   6.503   1.418
 5415WAT      O16786   2.721   6.542   0.861
 5415WAT     H116787   2.775   6.473   0.909
 5415WAT     H216788   2.689   6.611   0.927
 5416WAT      O16789   2.945   6.570   0.087
 5416WAT     H116790   2.922   6.623   0.005
 5416WAT     H216791   3.026   6.514   0.068
 5417WAT      O16792   2.083   6.900   1.844
 5417WAT     H116793   2.018   6.827   1.823
 5417WAT     H216794   2.087   6.914   1.942
 5418WAT      O16795   1.941   6.826   0.653
 5418WAT     H116796   1.940   6.779   0.741
 5418WAT     H216797   2.023   6.798   0.602
 5419WAT      O16798   2.534   6.977   1.624
 5419WAT     H116799   2.456   6.927   1.662
 5419WAT     H216800   2.531   7.072   1.655
 5420WAT      O16801   3.686   5.778   1.227
 5420WAT     H116802   3.682   5.688   1.271
 5420WAT     H216803   3.689   5.767   1.128
 5421WAT      O16804   2.290   6.010   0.520
 5421WAT     H116805   2.320   5.938   0.458
 5421WAT     H216806   2.251   5.970   0.603
 5422WAT      O16807   3.567   7.073   1.104
 5422WAT     H116808   3.474   7.048   1.077
 5422WAT     H216809   3.593   7.023   1.186
 5423WAT      O16810   2.179   6.133   1.280
 5423WAT     H116811   2.217   6.074   1.352
 5423WAT     H216812   2.219   6.107   1.192
 5424WAT      O16813   3.286   5.800   1.112
 5424WAT     H116814   3.338   5.735   1.167
 5424WAT     H216815   3.237   5.863   1.173
 5425WAT      O16816   2.863   5.620   1.154
 5425WAT     H116817   2.800   5.548   1.123
 5425WAT     H216818   2.956   5.584   1.154
 5426WAT      O16819   2.632   6.916   0.301
 5426WAT     H116820   2.586   6.829   0.318
 5426WAT     H216821   2.723   6.913   0.342
 5427WAT      O16822   3.214   5.638   0.168
 5427WAT     H116823   3.249   5.597   0.084
 5427WAT     H216824   3.124   5.600   0.188
 5428WAT      O16825   3.162   6.039   0.691
 5428WAT     H116826   3.103   6.119   0.695
 5428WAT     H216827   3.177   6.004   0.784
 5429WAT      O16828   3.455   5.807   0.882
 5429WAT     H116829   3.371   5.806   0.936
 5429WAT     H216830   3.457   5.890   0.826
 5430WAT      O16831   1.901   6.663   0.300
 5430WAT     H116832   2.000   6.652   0.291
 5430WAT     H216833   1.861   6.577   0.332
 5431WAT      O16834   2.092   6.214   1.975
 5431WAT     H116835   1.999   6.212   2.012
 5431WAT     H216836   2.093   6.175   1.883
 5432WAT      O16837   2.087   5.861   2.858
 5432WAT     H116838   2.122   5.844   2.950
 5432WAT     H216839   1.999   5.816   2.846
 5433WAT      O16840   1.881   5.954   2.509
 5433WAT     H116841   1.799   5.997   2.548
 5433WAT     H216842   1.853   5.881   2.446
 5434WAT      O16843   2.431   6.861   3.027
 5434WAT     H116844   2.338   6.854   2.990
 5434WAT     H216845   2.442   6.950   3.071
 5435WAT      O16846   3.417   7.097   2.565
 5435WAT     H116847   3.360   7.081   2.646
 5435WAT     H216848   3.358   7.107   2.485
 5436WAT      O16849   2.997   6.289   2.579
 5436WAT     H116850   3.054   6.367   2.554
 5436WAT     H216851   2.937   6.315   2.655
 5437WAT      O16852   3.617   6.193   2.093
 5437WAT     H116853   3.605   6.180   1.994
 5437WAT     H216854   3.587   6.112   2.142
 5438WAT      O16855   2.630   6.730   2.885
 5438WAT     H116856   2.552   6.747   2.945
 5438WAT     H216857   2.664   6.817   2.849
 5439WAT      O16858   2.712   6.384   3.685
 5439WAT     H116859   2.708   6.460   3.750
 5439WAT     H216860   2.734   6.420   3.594
 5440WAT      O16861   2.547   6.598   2.527
 5440WAT     H116862   2.616   6.582   2.597
 5440WAT     H216863   2.474   6.655   2.565
 5441WAT      O16864   2.548   6.747   3.665
 5441WAT     H116865   2.608   6.826   3.679
 5441WAT     H216866   2.462   6.778   3.624
 5442WAT      O16867   2.197   7.021   2.923
 5442WAT     H116868   2.119   6.990   2.870
 5442WAT     H216869   2.255   7.079   2.866
 5443WAT      O16870   2.300   5.978   3.361
 5443WAT     H116871   2.382   5.922   3.370
 5443WAT     H216872   2.219   5.920   3.365
 5444WAT      O16873   3.465   6.033   2.599
 5444WAT     H116874   3.391   6.079   2.549
 5444WAT     H216875   3.516   6.101   2.652
 5445WAT      O16876   2.102   6.677   2.748
 5445WAT     H116877   2.116   6.593   2.800
 5445WAT     H216878   2.047   6.741   2.803
 5446WAT      O16879   2.468   6.550   1.985
 5446WAT     H116880   2.475   6.634   1.931
 5446WAT     H216881   2.514   6.563   2.073
 5447WAT      O16882   3.456   5.700   3.342
 5447WAT     H116883   3.438   5.767   3.270
 5447WAT     H216884   3.453   5.746   3.431
 5448WAT      O16885   1.984   6.229   2.425
 5448WAT     H116886   1.939   6.141   2.442
 5448WAT     H216887   1.983   6.283   2.509
 5449WAT      O16888   3.551   6.508   2.474
 5449WAT     H116889   3.646   6.479   2.482
 5449WAT     H216890   3.543   6.573   2.399
 5450WAT      O16891   3.503   6.694   2.294
 5450WAT     H116892   3.589   6.696   2.242
 5450WAT     H216893   3.517   6.741   2.382
 5451WAT      O16894   1.975   6.323   3.459
 5451WAT     H116895   2.063   6.310   3.504
 5451WAT     H216896   1.962   6.420   3.437
 5452WAT      O16897   3.155   6.814   3.285
 5452WAT     H116898   3.192   6.741   3.227
 5452WAT     H216899   3.207   6.819   3.370
 5453WAT      O16900   2.671   5.590   2.364
 5453WAT     H116901   2.711   5.681   2.355
 5453WAT     H216902   2.571   5.598   2.370
 5454WAT      O16903   2.059   6.562   3.126
 5454WAT     H116904   2.148   6.517   3.112
 5454WAT     H216905   1.986   6.497   3.107
 5455WAT      O16906   3.387   6.585   2.052
 5455WAT     H116907   3.324   6.509   2.065
 5455WAT     H216908   3.435   6.603   2.138
 5456WAT      O16909   2.179   5.837   3.663
 5456WAT     H116910   2.250   5.908   3.669
 5456WAT     H216911   2.091   5.876   3.691
 5457WAT      O16912   3.328   7.003   2.815
 5457WAT     H116913   3.269   7.009   2.895
 5457WAT     H216914   3.313   6.915   2.769
 5458WAT      O16915   2.460   6.315   2.132
 5458WAT     H116916   2.484   6.384   2.064
 5458WAT     H216917   2.382   6.348   2.186
 5459WAT      O16918   3.143   5.931   2.806
 5459WAT     H116919   3.057   5.881   2.793
 5459WAT     H216920   3.205   5.877   2.862
 5460WAT      O16921   2.669   6.191   3.327
 5460WAT     H116922   2.622   6.188   3.416
 5460WAT     H216923   2.618   6.136   3.261
 5461WAT      O16924   3.256   6.055   3.536
 5461WAT     H116925   3.236   6.098   3.624
 5461WAT     H216926   3.334   5.993   3.545
 5462WAT      O16927   2.835   6.476   3.434
 5462WAT     H116928   2.881   6.392   3.405
 5462WAT     H216929   2.779   6.510   3.359
 5463WAT      O16930   2.853   5.996   3.104
 5463WAT     H116931   2.776   6.030   3.158
 5463WAT     H216932   2.819   5.945   3.025
 5464WAT      O16933   2.903   6.287   2.291
 5464WAT     H116934   2.929   6.283   2.387
 5464WAT     H216935   2.818   6.236   2.277
 5465WAT      O16936   1.938   6.397   2.651
 5465WAT     H116937   2.037   6.385   2.660
 5465WAT     H216938   1.914   6.492   2.672
 5466WAT      O16939   2.727   5.934   2.057
 5466WAT     H116940   2.786   5.997   2.008
 5466WAT     H216941   2.746   5.840   2.028
 5467WAT      O16942   3.581   6.171   3.693
 5467WAT     H116943   3.555   6.260   3.657
 5467WAT     H216944   3.579   6.103   3.620
 5468WAT      O16945   3.224   6.730   2.407
 5468WAT     H116946   3.307   6.701   2.359
 5468WAT     H216947   3.175   6.797   2.351
 5469WAT      O16948   2.412   5.782   2.747
 5469WAT     H116949   2.407   5.777   2.847
 5469WAT     H216950   2.414   5.878   2.718
 5470WAT      O16951   3.657   6.652   2.735
 5470WAT     H116952   3.595   6.637   2.659
 5470WAT     H216953   3.605   6.663   2.820
 5471WAT      O16954   2.183   6.529   2.104
 5471WAT     H116955   2.265   6.568   2.062
 5471WAT     H216956   2.156   6.447   2.055
 5472WAT      O16957   3.320   6.321   2.590
 5472WAT     H116958   3.315   6.256   2.665
 5472WAT     H216959   3.400   6.380   2.603
 5473WAT      O16960   2.064   5.871   3.360
 5473WAT     H116961   1.984   5.931   3.347
 5473WAT     H216962   2.054   5.822   3.446
 5474WAT      O16963   3.494   6.963   1.943
 5474WAT     H116964   3.462   7.057   1.933
 5474WAT     H216965   3.418   6.900   1.931
 5475WAT      O16966   3.262   5.693   2.288
 5475WAT     H116967   3.238   5.656   2.198
 5475WAT     H216968   3.361   5.709   2.292
 5476WAT      O16969   2.244   6.286   2.342
 5476WAT     H116970   2.289   6.196   2.339
 5476WAT     H216971   2.150   6.275   2.375
 5477WAT      O16972   3.409   5.808   3.591
 5477WAT     H116973   3.404   5.845   3.683
 5477WAT     H216974   3.337   5.739   3.579
 5478WAT      O16975   2.476   5.708   1.979
 5478WAT     H116976   2.574   5.686   1.986
 5478WAT     H216977   2.445   5.691   1.886
 5479WAT      O16978   2.643   5.850   3.611
 5479WAT     H116979   2.710   5.789   3.654
 5479WAT     H216980   2.570   5.869   3.676
 5480WAT      O16981   3.213   6.176   3.295
 5480WAT     H116982   3.241   6.133   3.380
 5480WAT     H216983   3.238   6.272   3.296
 5481WAT      O16984   2.784   6.089   2.761
 5481WAT     H116985   2.759   6.080   2.665
 5481WAT     H216986   2.832   6.007   2.792
 5482WAT      O16987   2.401   5.650   2.374
 5482WAT     H116988   2.320   5.651   2.432
 5482WAT     H216989   2.404   5.733   2.319
 5483WAT      O16990   3.296   6.774   1.903
 5483WAT     H116991   3.328   6.698   1.960
 5483WAT     H216992   3.204   6.801   1.933
 5484WAT      O16993   2.159   5.621   2.033
 5484WAT     H116994   2.208   5.705   2.012
 5484WAT     H216995   2.221   5.556   2.078
 5485WAT      O16996   2.797   5.822   2.342
 5485WAT     H116997   2.749   5.863   2.264
 5485WAT     H216998   2.896   5.820   2.323
 5486WAT      O16999   2.938   6.269   3.326
 5486WAT     H117000   2.858   6.208   3.329
 5486WAT     H217001   3.019   6.216   3.302
 5487WAT      O17002   3.089   7.156   2.655
 5487WAT     H117003   3.110   7.230   2.590
 5487WAT     H217004   3.157   7.156   2.728
 5488WAT      O17005   2.321   6.738   2.603
 5488WAT     H117006   2.250   6.711   2.668
 5488WAT     H217007   2.295   6.710   2.510
 5489WAT      O17008   2.894   6.135   1.878
 5489WAT     H117009   2.853   6.217   1.839
 5489WAT     H217010   2.958   6.161   1.951
 5490WAT      O17011   1.940   6.142   3.248
 5490WAT     H117012   2.032   6.141   3.207
 5490WAT     H217013   1.934   6.216   3.315
 5491WAT      O17014   2.423   5.808   3.009
 5491WAT     H117015   2.461   5.724   3.046
 5491WAT     H217016   2.335   5.827   3.053
 5492WAT      O17017   2.728   6.040   2.504
 5492WAT     H117018   2.696   6.112   2.442
 5492WAT     H217019   2.752   5.959   2.451
 5493WAT      O17020   2.879   5.625   2.615
 5493WAT     H117021   2.807   5.630   2.546
 5493WAT     H217022   2.855   5.556   2.684
 5494WAT      O17023   3.291   6.759   2.729
 5494WAT     H117024   3.236   6.675   2.722
 5494WAT     H217025   3.317   6.788   2.637
 5495WAT      O17026   3.328   6.176   2.854
 5495WAT     H117027   3.298   6.081   2.861
 5495WAT     H217028   3.401   6.192   2.920
 5496WAT      O17029   3.719   6.419   2.239
 5496WAT     H117030   3.761   6.355   2.303
 5496WAT     H217031   3.681   6.368   2.161
 5497WAT      O17032   3.526   6.866   2.519
 5497WAT     H117033   3.625   6.874   2.533
 5497WAT     H217034   3.481   6.950   2.550
 5498WAT      O17035   3.252   6.161   1.940
 5498WAT     H117036   3.198   6.140   2.021
 5498WAT     H217037   3.343   6.120   1.949
 5499WAT      O17038   2.389   5.842   2.190
 5499WAT     H117039   2.416   5.783   2.115
 5499WAT     H217040   2.389   5.937   2.159
 5500WAT      O17041   3.616   6.809   3.450
 5500WAT     H117042   3.707   6.770   3.437
 5500WAT     H217043   3.624   6.905   3.474
 5501WAT      O17044   2.926   6.933   3.202
 5501WAT     H117045   2.846   6.910   3.257
 5501WAT     H217046   3.009   6.907   3.251
 5502WAT      O17047   2.973   6.781   2.962
 5502WAT     H117048   2.933   6.825   3.043
 5502WAT     H217049   2.932   6.818   2.879
 5503WAT      O17050   3.500   6.685   2.941
 5503WAT     H117051   3.505   6.766   3.000
 5503WAT     H217052   3.414   6.687   2.890
 5504WAT      O17053   2.777   5.675   3.264
 5504WAT     H117054   2.802   5.655   3.169
 5504WAT     H217055   2.849   5.731   3.306
 5505WAT      O17056   2.842   6.702   3.581
 5505WAT     H117057   2.743   6.708   3.591
 5505WAT     H217058   2.865   6.622   3.525
 5506WAT      O17059   2.567   6.636   2.230
 5506WAT     H117060   2.553   6.643   2.329
 5506WAT     H217061   2.651   6.585   2.212
 5507WAT      O17062   2.272   6.399   3.113
 5507WAT     H117063   2.358   6.411   3.163
 5507WAT     H217064   2.230   6.312   3.140
 5508WAT      O17065   3.136   5.972   3.124
 5508WAT     H117066   3.157   6.046   3.188
 5508WAT     H217067   3.047   5.989   3.081
 5509WAT      O17068   2.229   6.686   2.363
 5509WAT     H117069   2.222   6.769   2.307
 5509WAT     H217070   2.233   6.606   2.303
 5510WAT      O17071   2.428   6.123   2.727
 5510WAT     H117072   2.440   6.189   2.653
 5510WAT     H217073   2.474   6.157   2.810
 5511WAT      O17074   3.444   6.225   2.334
 5511WAT     H117075   3.413   6.286   2.407
 5511WAT     H217076   3.494   6.277   2.265
 5512WAT      O17077   2.264   6.337   3.460
 5512WAT     H117078   2.332   6.392   3.413
 5512WAT     H217079   2.304   6.249   3.487
 5513WAT      O17080   3.449   6.365   3.532
 5513WAT     H117081   3.357   6.403   3.527
 5513WAT     H217082   3.509   6.412   3.467
 5514WAT      O17083   2.875   5.691   3.632
 5514WAT     H117084   2.881   5.776   3.580
 5514WAT     H217085   2.907   5.615   3.575
 5515WAT      O17086   2.366   5.636   3.602
 5515WAT     H117087   2.324   5.579   3.532
 5515WAT     H217088   2.300   5.705   3.634
 5516WAT      O17089   2.435   6.456   2.891
 5516WAT     H117090   2.479   6.545   2.882
 5516WAT     H217091   2.372   6.456   2.968
 5517WAT      O17092   3.222   6.448   2.907
 5517WAT     H117093   3.147   6.448   2.841
 5517WAT     H217094   3.259   6.356   2.916
 5518WAT      O17095   3.071   6.111   2.137
 5518WAT     H117096   3.084   6.027   2.191
 5518WAT     H217097   3.042   6.185   2.197
 5519WAT      O17098   2.169   5.799   3.093
 5519WAT     H117099   2.146   5.836   3.183
 5519WAT     H217100   2.139   5.704   3.087
 5520WAT      O17101   1.899   6.896   3.144
 5520WAT     H117102   1.952   6.847   3.212
 5520WAT     H217103   1.921   6.994   3.149
 5521WAT      O17104   2.594   6.220   2.926
 5521WAT     H117105   2.653   6.194   2.850
 5521WAT     H217106   2.566   6.316   2.915
 5522WAT      O17107   3.590   6.521   3.716
 5522WAT     H117108   3.544   6.514   3.627
 5522WAT     H217109   3.528   6.565   3.782
 5523WAT      O17110   2.169   5.649   2.480
 5523WAT     H117111   2.158   5.743   2.513
 5523WAT     H217112   2.164   5.586   2.557
 5524WAT      O17113   3.484   5.953   2.236
 5524WAT     H117114   3.486   5.877   2.300
 5524WAT     H217115   3.436   6.030   2.276
 5525WAT      O17116   2.885   6.352   2.828
 5525WAT     H117117   2.900   6.373   2.924
 5525WAT     H217118   2.855   6.257   2.819
 5526WAT      O17119   3.721   7.104   3.467
 5526WAT     H117120   3.735   7.131   3.372
 5526WAT     H217121   3.804   7.126   3.520
 5527WAT      O17122   2.212   6.484   3.666
 5527WAT     H117123   2.288   6.528   3.714
 5527WAT     H217124   2.247   6.437   3.584
 5528WAT      O17125   3.402   5.860   1.987
 5528WAT     H117126   3.341   5.785   2.010
 5528WAT     H217127   3.424   5.912   2.070
 5529WAT      O17128   3.165   6.424   1.904
 5529WAT     H117129   3.199   6.331   1.919
 5529WAT     H217130   3.183   6.451   1.809
 5530WAT      O17131   2.181   6.396   2.811
 5530WAT     H117132   2.274   6.432   2.816
 5530WAT     H217133   2.175   6.311   2.863
 5531WAT      O17134   2.201   6.095   2.868
 5531WAT     H117135   2.149   6.012   2.851
 5531WAT     H217136   2.278   6.100   2.804
 5532WAT      O17137   3.000   5.966   3.540
 5532WAT     H117138   2.955   6.029   3.604
 5532WAT     H217139   3.093   5.997   3.523
 5533WAT      O17140   3.022   5.793   3.339
 5533WAT     H117141   3.022   5.857   3.416
 5533WAT     H217142   3.050   5.841   3.256
 5534WAT      O17143   1.870   6.912   2.062
 5534WAT     H117144   1.777   6.933   2.031
 5534WAT     H217145   1.880   6.813   2.075
 5535WAT      O17146   2.864   6.382   3.100
 5535WAT     H117147   2.905   6.350   3.186
 5535WAT     H217148   2.768   6.355   3.097
 5536WAT      O17149   1.902   6.130   2.976
 5536WAT     H117150   1.987   6.097   2.935
 5536WAT     H217151   1.915   6.145   3.074
 5537WAT      O17152   2.051   6.106   3.584
 5537WAT     H117153   2.110   6.066   3.514
 5537WAT     H217154   1.993   6.177   3.543
 5538WAT      O17155   3.231   6.536   3.522
 5538WAT     H117156   3.270   6.625   3.542
 5538WAT     H217157   3.241   6.516   3.425
 5539WAT      O17158   2.677   6.158   2.187
 5539WAT     H117159   2.684   6.069   2.141
 5539WAT     H217160   2.583   6.192   2.179
 5540WAT      O17161   3.519   6.190   3.068
 5540WAT     H117162   3.481   6.121   3.130
 5540WAT     H217163   3.601   6.154   3.024
 5541WAT      O17164   2.533   6.050   3.131
 5541WAT     H117165   2.499   5.961   3.101
 5541WAT     H217166   2.559   6.104   3.051
 5542WAT      O17167   2.335   6.086   2.053
 5542WAT     H117168   2.396   6.166   2.057
 5542WAT     H217169   2.240   6.117   2.060
 5543WAT      O17170   2.021   6.723   3.328
 5543WAT     H117171   2.043   6.662   3.404
 5543WAT     H217172   2.031   6.674   3.242
 5544WAT      O17173   3.209   6.645   3.096
 5544WAT     H117174   3.233   6.582   3.022
 5544WAT     H217175   3.119   6.685   3.078
 5545WAT      O17176   3.164   6.441   2.171
 5545WAT     H117177   3.078   6.410   2.213
 5545WAT     H217178   3.160   6.427   2.072
 5546WAT      O17179   1.945   6.844   2.884
 5546WAT     H117180   1.940   6.843   2.984
 5546WAT     H217181   1.862   6.803   2.846
 5547WAT      O17182   3.588   5.721   2.385
 5547WAT     H117183   3.661   5.704   2.318
 5547WAT     H217184   3.557   5.634   2.423
 5548WAT      O17185   3.142   6.513   2.534
 5548WAT     H117186   3.202   6.432   2.536
 5548WAT     H217187   3.182   6.582   2.474
 5549WAT      O17188   2.692   6.859   3.284
 5549WAT     H117189   2.687   6.892   3.379
 5549WAT     H217190   2.606   6.878   3.238
 5550WAT      O17191   3.703   5.761   2.825
 5550WAT     H117192   3.742   5.676   2.789
 5550WAT     H217193   3.605   5.763   2.806
 5551WAT      O17194   2.125   5.912   2.582
 5551WAT     H117195   2.046   5.963   2.548
 5551WAT     H217196   2.116   5.897   2.680
 5552WAT      O17197   3.056   7.198   1.893
 5552WAT     H117198   3.062   7.105   1.930
 5552WAT     H217199   2.997   7.198   1.813
 5553WAT      O17200   2.684   6.588   3.234
 5553WAT     H117201   2.724   6.587   3.142
 5553WAT     H217202   2.694   6.680   3.274
 5554WAT      O17203   2.778   6.496   2.153
 5554WAT     H117204   2.841   6.534   2.085
 5554WAT     H217205   2.818   6.413   2.192
 5555WAT      O17206   2.234   6.874   3.352
 5555WAT     H117207   2.221   6.967   3.318
 5555WAT     H217208   2.150   6.822   3.339
 5556WAT      O17209   3.476   6.878   3.151
 5556WAT     H117210   3.536   6.881   3.231
 5556WAT     H217211   3.401   6.942   3.164
 5557WAT      O17212   2.901   6.684   2.558
 5557WAT     H117213   2.831   6.637   2.612
 5557WAT     H217214   2.960   6.616   2.515
 5558WAT      O17215   2.876   5.822   2.833
 5558WAT     H117216   2.868   5.786   2.740
 5558WAT     H217217   2.874   5.746   2.898
 5559WAT      O17218   3.571   5.971   3.243
 5559WAT     H117219   3.644   6.040   3.247
 5559WAT     H217220   3.599   5.896   3.184
 5560WAT      O17221   1.967   6.599   3.588
 5560WAT     H117222   1.890   6.566   3.642
 5560WAT     H217223   2.052   6.569   3.630
 5561WAT      O17224   2.534   5.789   3.351
 5561WAT     H117225   2.624   5.773   3.311
 5561WAT     H217226   2.542   5.794   3.450
 5562WAT      O17227   1.937   5.931   1.895
 5562WAT     H117228   1.845   5.903   1.866
 5562WAT     H217229   1.968   6.008   1.839
 5563WAT      O17230   3.302   6.442   3.260
 5563WAT     H117231   3.245   6.494   3.197
 5563WAT     H217232   3.398   6.454   3.236
 5564WAT      O17233   1.934   5.752   2.180
 5564WAT     H117234   1.917   5.835   2.126
 5564WAT     H217235   2.024   5.715   2.158
 5565WAT      O17236   2.475   6.428   3.293
 5565WAT     H117237   2.531   6.509   3.276
 5565WAT     H217238   2.534   6.348   3.296
 5566WAT      O17239   2.578   6.151   3.570
 5566WAT     H117240   2.597   6.216   3.644
 5566WAT     H217241   2.638   6.071   3.579
 5567WAT      O17242   3.312   6.806   3.495
 5567WAT     H117243   3.303   6.796   3.594
 5567WAT     H217244   3.408   6.799   3.469
 5568WAT      O17245   3.536   6.469   3.116
 5568WAT     H117246   3.509   6.380   3.079
 5568WAT     H217247   3.537   6.537   3.043
 5569WAT      O17248   3.087   5.911   2.311
 5569WAT     H117249   3.152   5.837   2.300
 5569WAT     H217250   3.107   5.961   2.395
 5570WAT      O17251   2.456   6.331   2.514
 5570WAT     H117252   2.506   6.416   2.495
 5570WAT     H217253   2.368   6.333   2.466
 5571WAT      O17254   3.639   5.928   3.504
 5571WAT     H117255   3.622   5.959   3.410
 5571WAT     H217256   3.555   5.891   3.542
 5572WAT      O17257   3.592   6.520   3.379
 5572WAT     H117258   3.630   6.611   3.394
 5572WAT     H217259   3.584   6.503   3.280
 5573WAT      O17260   2.721   6.542   2.723
 5573WAT     H117261   2.775   6.473   2.771
 5573WAT     H217262   2.689   6.611   2.789
 5574WAT      O17263   2.945   6.570   1.949
 5574WAT     H117264   2.922   6.623   1.867
 5574WAT     H217265   3.026   6.514   1.930
 5575WAT      O17266   2.083   6.900   3.706
 5575WAT     H117267   2.018   6.827   3.685
 5575WAT     H217268   2.087   6.914   3.804
 5576WAT      O17269   1.941   6.826   2.515
 5576WAT     H117270   1.940   6.779   2.603
 5576WAT     H217271   2.023   6.798   2.464
 5577WAT      O17272   2.534   6.977   3.486
 5577WAT     H117273   2.456   6.927   3.524
 5577WAT     H217274   2.531   7.072   3.517
 5578WAT      O17275   3.686   5.778   3.089
 5578WAT     H117276   3.682   5.688   3.133
 5578WAT     H217277   3.689   5.767   2.990
 5579WAT      O17278   2.290   6.010   2.382
 5579WAT     H117279   2.320   5.938   2.320
 5579WAT     H217280   2.251   5.970   2.465
 5580WAT      O17281   3.567   7.073   2.966
 5580WAT     H117282   3.474   7.048   2.939
 5580WAT     H217283   3.593   7.023   3.048
 5581WAT      O17284   2.179   6.133   3.142
 5581WAT     H117285   2.217   6.074   3.214
 5581WAT     H217286   2.219   6.107   3.054
 5582WAT      O17287   3.286   5.800   2.974
 5582WAT     H117288   3.338   5.735   3.029
 5582WAT     H217289   3.237   5.863   3.035
 5583WAT      O17290   2.863   5.620   3.016
 5583WAT     H117291   2.800   5.548   2.985
 5583WAT     H217292   2.956   5.584   3.016
 5584WAT      O17293   2.632   6.916   2.163
 5584WAT     H117294   2.586   6.829   2.180
 5584WAT     H217295   2.723   6.913   2.204
 5585WAT      O17296   3.214   5.638   2.030
 5585WAT     H117297   3.249   5.597   1.946
 5585WAT     H217298   3.124   5.600   2.050
 5586WAT      O17299   3.162   6.039   2.553
 5586WAT     H117300   3.103   6.119   2.557
 5586WAT     H217301   3.177   6.004   2.646
 5587WAT      O17302   3.455   5.807   2.744
 5587WAT     H117303   3.371   5.806   2.798
 5587WAT     H217304   3.457   5.890   2.688
 5588WAT      O17305   1.901   6.663   2.162
 5588WAT     H117306   2.000   6.652   2.153
 5588WAT     H217307   1.861   6.577   2.194
 5589WAT      O17308   2.092   6.214   3.837
 5589WAT     H117309   1.999   6.212   3.874
 5589WAT     H217310   2.093   6.175   3.745
 5590WAT      O17311   2.087   5.861   4.720
 5590WAT     H117312   2.122   5.844   4.812
 5590WAT     H217313   1.999   5.816   4.708
 5591WAT      O17314   1.881   5.954   4.371
 5591WAT     H117315   1.799   5.997   4.410
 5591WAT     H217316   1.853   5.881   4.308
 5592WAT      O17317   2.431   6.861   4.889
 5592WAT     H117318   2.338   6.854   4.852
 5592WAT     H217319   2.442   6.950   4.933
 5593WAT      O17320   3.417   7.097   4.427
 5593WAT     H117321   3.360   7.081   4.508
 5593WAT     H217322   3.358   7.107   4.347
 5594WAT      O17323   2.997   6.289   4.441
 5594WAT     H117324   3.054   6.367   4.416
 5594WAT     H217325   2.937   6.315   4.517
 5595WAT      O17326   3.617   6.193   3.955
 5595WAT     H117327   3.605   6.180   3.856
 5595WAT     H217328   3.587   6.112   4.004
 5596WAT      O17329   2.630   6.730   4.747
 5596WAT     H117330   2.552   6.747   4.807
 5596WAT     H217331   2.664   6.817   4.711
 5597WAT      O17332   2.712   6.384   5.547
 5597WAT     H117333   2.708   6.460   5.612
 5597WAT     H217334   2.734   6.420   5.456
 5598WAT      O17335   2.547   6.598   4.389
 5598WAT     H117336   2.616   6.582   4.459
 5598WAT     H217337   2.474   6.655   4.427
 5599WAT      O17338   2.548   6.747   5.527
 5599WAT     H117339   2.608   6.826   5.541
 5599WAT     H217340   2.462   6.778   5.486
 5600WAT      O17341   2.197   7.021   4.785
 5600WAT     H117342   2.119   6.990   4.732
 5600WAT     H217343   2.255   7.079   4.728
 5601WAT      O17344   2.300   5.978   5.223
 5601WAT     H117345   2.382   5.922   5.232
 5601WAT     H217346   2.219   5.920   5.227
 5602WAT      O17347   3.465   6.033   4.461
 5602WAT     H117348   3.391   6.079   4.411
 5602WAT     H217349   3.516   6.101   4.514
 5603WAT      O17350   2.102   6.677   4.610
 5603WAT     H117351   2.116   6.593   4.662
 5603WAT     H217352   2.047   6.741   4.665
 5604WAT      O17353   2.468   6.550   3.847
 5604WAT     H117354   2.475   6.634   3.793
 5604WAT     H217355   2.514   6.563   3.935
 5605WAT      O17356   3.456   5.700   5.204
 5605WAT     H117357   3.438   5.767   5.132
 5605WAT     H217358   3.453   5.746   5.293
 5606WAT      O17359   1.984   6.229   4.287
 5606WAT     H117360   1.939   6.141   4.304
 5606WAT     H217361   1.983   6.283   4.371
 5607WAT      O17362   3.551   6.508   4.336
 5607WAT     H117363   3.646   6.479   4.344
 5607WAT     H217364   3.543   6.573   4.261
 5608WAT      O17365   3.503   6.694   4.156
 5608WAT     H117366   3.589   6.696   4.104
 5608WAT     H217367   3.517   6.741   4.244
 5609WAT      O17368   1.975   6.323   5.321
 5609WAT     H117369   2.063   6.310   5.366
 5609WAT     H217370   1.962   6.420   5.299
 5610WAT      O17371   3.155   6.814   5.147
 5610WAT     H117372   3.192   6.741   5.089
 5610WAT     H217373   3.207   6.819   5.232
 5611WAT      O17374   2.671   5.590   4.226
 5611WAT     H117375   2.711   5.681   4.217
 5611WAT     H217376   2.571   5.598   4.232
 5612WAT      O17377   2.059   6.562   4.988
 5612WAT     H117378   2.148   6.517   4.974
 5612WAT     H217379   1.986   6.497   4.969
 5613WAT      O17380   3.387   6.585   3.914
 5613WAT     H117381   3.324   6.509   3.927
 5613WAT     H217382   3.435   6.603   4.000
 5614WAT      O17383   2.179   5.837   5.525
 5614WAT     H117384   2.250   5.908   5.531
 5614WAT     H217385   2.091   5.876   5.553
 5615WAT      O17386   3.328   7.003   4.677
 5615WAT     H117387   3.269   7.009   4.757
 5615WAT     H217388   3.313   6.915   4.631
 5616WAT      O17389   2.460   6.315   3.994
 5616WAT     H117390   2.484   6.384   3.926
 5616WAT     H217391   2.382   6.348   4.048
 5617WAT      O17392   3.143   5.931   4.668
 5617WAT     H117393   3.057   5.881   4.655
 5617WAT     H217394   3.205   5.877   4.724
 5618WAT      O17395   2.669   6.191   5.189
 5618WAT     H117396   2.622   6.188   5.278
 5618WAT     H217397   2.618   6.136   5.123
 5619WAT      O17398   3.256   6.055   5.398
 5619WAT     H117399   3.236   6.098   5.486
 5619WAT     H217400   3.334   5.993   5.407
 5620WAT      O17401   2.835   6.476   5.296
 5620WAT     H117402   2.881   6.392   5.267
 5620WAT     H217403   2.779   6.510   5.221
 5621WAT      O17404   2.853   5.996   4.966
 5621WAT     H117405   2.776   6.030   5.020
 5621WAT     H217406   2.819   5.945   4.887
 5622WAT      O17407   2.903   6.287   4.153
 5622WAT     H117408   2.929   6.283   4.249
 5622WAT     H217409   2.818   6.236   4.139
 5623WAT      O17410   1.938   6.397   4.513
 5623WAT     H117411   2.037   6.385   4.522
 5623WAT     H217412   1.914   6.492   4.534
 5624WAT      O17413   2.727   5.934   3.919
 5624WAT     H117414   2.786   5.997   3.870
 5624WAT     H217415   2.746   5.840   3.890
 5625WAT      O17416   3.581   6.171   5.555
 5625WAT     H117417   3.555   6.260   5.519
 5625WAT     H217418   3.579   6.103   5.482
 5626WAT      O17419   3.224   6.730   4.269
 5626WAT     H117420   3.307   6.701   4.221
 5626WAT     H217421   3.175   6.797   4.213
 5627WAT      O17422   2.412   5.782   4.609
 5627WAT     H117423   2.407   5.777   4.709
 5627WAT     H217424   2.414   5.878   4.580
 5628WAT      O17425   3.657   6.652   4.597
 5628WAT     H117426   3.595   6.637   4.521
 5628WAT     H217427   3.605   6.663   4.682
 5629WAT      O17428   2.183   6.529   3.966
 5629WAT     H117429   2.265   6.568   3.924
 5629WAT     H217430   2.156   6.447   3.917
 5630WAT      O17431   3.320   6.321   4.452
 5630WAT     H117432   3.315   6.256   4.527
 5630WAT     H217433   3.400   6.380   4.465
 5631WAT      O17434   2.064   5.871   5.222
 5631WAT     H117435   1.984   5.931   5.209
 5631WAT     H217436   2.054   5.822   5.308
 5632WAT      O17437   3.494   6.963   3.805
 5632WAT     H117438   3.462   7.057   3.795
 5632WAT     H217439   3.418   6.900   3.793
 5633WAT      O17440   3.262   5.693   4.150
 5633WAT     H117441   3.238   5.656   4.060
 5633WAT     H217442   3.361   5.709   4.154
 5634WAT      O17443   2.244   6.286   4.204
 5634WAT     H117444   2.289   6.196   4.201
 5634WAT     H217445   2.150   6.275   4.237
 5635WAT      O17446   3.409   5.808   5.453
 5635WAT     H117447   3.404   5.845   5.545
 5635WAT     H217448   3.337   5.739   5.441
 5636WAT      O17449   2.476   5.708   3.841
 5636WAT     H117450   2.574   5.686   3.848
 5636WAT     H217451   2.445   5.691   3.748
 5637WAT      O17452   2.643   5.850   5.473
 5637WAT     H117453   2.710   5.789   5.516
 5637WAT     H217454   2.570   5.869   5.538
 5638WAT      O17455   3.213   6.176   5.157
 5638WAT     H117456   3.241   6.133   5.242
 5638WAT     H217457   3.238   6.272   5.158
 5639WAT      O17458   2.784   6.089   4.623
 5639WAT     H117459   2.759   6.080   4.527
 5639WAT     H217460   2.832   6.007   4.654
 5640WAT      O17461   2.401   5.650   4.236
 5640WAT     H117462   2.320   5.651   4.294
 5640WAT     H217463   2.404   5.733   4.181
 5641WAT      O17464   3.296   6.774   3.765
 5641WAT     H117465   3.328   6.698   3.822
 5641WAT     H217466   3.204   6.801   3.795
 5642WAT      O17467   2.159   5.621   3.895
 5642WAT     H117468   2.208   5.705   3.874
 5642WAT     H217469   2.221   5.556   3.940
 5643WAT      O17470   2.797   5.822   4.204
 5643WAT     H117471   2.749   5.863   4.126
 5643WAT     H217472   2.896   5.820   4.185
 5644WAT      O17473   2.938   6.269   5.188
 5644WAT     H117474   2.858   6.208   5.191
 5644WAT     H217475   3.019   6.216   5.164
 5645WAT      O17476   3.089   7.156   4.517
 5645WAT     H117477   3.110   7.230   4.452
 5645WAT     H217478   3.157   7.156   4.590
 5646WAT      O17479   2.321   6.738   4.465
 5646WAT     H117480   2.250   6.711   4.530
 5646WAT     H217481   2.295   6.710   4.372
 5647WAT      O17482   2.894   6.135   3.740
 5647WAT     H117483   2.853   6.217   3.701
 5647WAT     H217484   2.958   6.161   3.813
 5648WAT      O17485   1.940   6.142   5.110
 5648WAT     H117486   2.032   6.141   5.069
 5648WAT     H217487   1.934   6.216   5.177
 5649WAT      O17488   2.423   5.808   4.871
 5649WAT     H117489   2.461   5.724   4.908
 5649WAT     H217490   2.335   5.827   4.915
 5650WAT      O17491   2.728   6.040   4.366
 5650WAT     H117492   2.696   6.112   4.304
 5650WAT     H217493   2.752   5.959   4.313
 5651WAT      O17494   2.879   5.625   4.477
 5651WAT     H117495   2.807   5.630   4.408
 5651WAT     H217496   2.855   5.556   4.546
 5652WAT      O17497   3.291   6.759   4.591
 5652WAT     H117498   3.236   6.675   4.584
 5652WAT     H217499   3.317   6.788   4.499
 5653WAT      O17500   3.328   6.176   4.716
 5653WAT     H117501   3.298   6.081   4.723
 5653WAT     H217502   3.401   6.192   4.782
 5654WAT      O17503   3.719   6.419   4.101
 5654WAT     H117504   3.761   6.355   4.165
 5654WAT     H217505   3.681   6.368   4.023
 5655WAT      O17506   3.526   6.866   4.381
 5655WAT     H117507   3.625   6.874   4.395
 5655WAT     H217508   3.481   6.950   4.412
 5656WAT      O17509   3.252   6.161   3.802
 5656WAT     H117510   3.198   6.140   3.883
 5656WAT     H217511   3.343   6.120   3.811
 5657WAT      O17512   2.389   5.842   4.052
 5657WAT     H117513   2.416   5.783   3.977
 5657WAT     H217514   2.389   5.937   4.021
 5658WAT      O17515   3.616   6.809   5.312
 5658WAT     H117516   3.707   6.770   5.299
 5658WAT     H217517   3.624   6.905   5.336
 5659WAT      O17518   2.926   6.933   5.064
 5659WAT     H117519   2.846   6.910   5.119
 5659WAT     H217520   3.009   6.907   5.113
 5660WAT      O17521   2.973   6.781   4.824
 5660WAT     H117522   2.933   6.825   4.905
 5660WAT     H217523   2.932   6.818   4.741
 5661WAT      O17524   3.500   6.685   4.803
 5661WAT     H117525   3.505   6.766   4.862
 5661WAT     H217526   3.414   6.687   4.752
 5662WAT      O17527   2.777   5.675   5.126
 5662WAT     H117528   2.802   5.655   5.031
 5662WAT     H217529   2.849   5.731   5.168
 5663WAT      O17530   2.842   6.702   5.443
 5663WAT     H117531   2.743   6.708   5.453
 5663WAT     H217532   2.865   6.622   5.387
 5664WAT      O17533   2.567   6.636   4.092
 5664WAT     H117534   2.553   6.643   4.191
 5664WAT     H217535   2.651   6.585   4.074
 5665WAT      O17536   2.272   6.399   4.975
 5665WAT     H117537   2.358   6.411   5.025
 5665WAT     H217538   2.230   6.312   5.002
 5666WAT      O17539   3.136   5.972   4.986
 5666WAT     H117540   3.157   6.046   5.050
 5666WAT     H217541   3.047   5.989   4.943
 5667WAT      O17542   2.229   6.686   4.225
 5667WAT     H117543   2.222   6.769   4.169
 5667WAT     H217544   2.233   6.606   4.165
 5668WAT      O17545   2.428   6.123   4.589
 5668WAT     H117546   2.440   6.189   4.515
 5668WAT     H217547   2.474   6.157   4.672
 5669WAT      O17548   3.444   6.225   4.196
 5669WAT     H117549   3.413   6.286   4.269
 5669WAT     H217550   3.494   6.277   4.127
 5670WAT      O17551   2.264   6.337   5.322
 5670WAT     H117552   2.332   6.392   5.275
 5670WAT     H217553   2.304   6.249   5.349
 5671WAT      O17554   3.449   6.365   5.394
 5671WAT     H117555   3.357   6.403   5.389
 5671WAT     H217556   3.509   6.412   5.329
 5672WAT      O17557   2.875   5.691   5.494
 5672WAT     H117558   2.881   5.776   5.442
 5672WAT     H217559   2.907   5.615   5.437
 5673WAT      O17560   2.366   5.636   5.464
 5673WAT     H117561   2.324   5.579   5.394
 5673WAT     H217562   2.300   5.705   5.496
 5674WAT      O17563   2.435   6.456   4.753
 5674WAT     H117564   2.479   6.545   4.744
 5674WAT     H217565   2.372   6.456   4.830
 5675WAT      O17566   3.222   6.448   4.769
 5675WAT     H117567   3.147   6.448   4.703
 5675WAT     H217568   3.259   6.356   4.778
 5676WAT      O17569   3.071   6.111   3.999
 5676WAT     H117570   3.084   6.027   4.053
 5676WAT     H217571   3.042   6.185   4.059
 5677WAT      O17572   2.169   5.799   4.955
 5677WAT     H117573   2.146   5.836   5.045
 5677WAT     H217574   2.139   5.704   4.949
 5678WAT      O17575   1.899   6.896   5.006
 5678WAT     H117576   1.952   6.847   5.074
 5678WAT     H217577   1.921   6.994   5.011
 5679WAT      O17578   2.594   6.220   4.788
 5679WAT     H117579   2.653   6.194   4.712
 5679WAT     H217580   2.566   6.316   4.777
 5680WAT      O17581   3.590   6.521   5.578
 5680WAT     H117582   3.544   6.514   5.489
 5680WAT     H217583   3.528   6.565   5.644
 5681WAT      O17584   2.169   5.649   4.342
 5681WAT     H117585   2.158   5.743   4.375
 5681WAT     H217586   2.164   5.586   4.419
 5682WAT      O17587   3.484   5.953   4.098
 5682WAT     H117588   3.486   5.877   4.162
 5682WAT     H217589   3.436   6.030   4.138
 5683WAT      O17590   2.885   6.352   4.690
 5683WAT     H117591   2.900   6.373   4.786
 5683WAT     H217592   2.855   6.257   4.681
 5684WAT      O17593   3.721   7.104   5.329
 5684WAT     H117594   3.735   7.131   5.234
 5684WAT     H217595   3.804   7.126   5.382
 5685WAT      O17596   2.212   6.484   5.528
 5685WAT     H117597   2.288   6.528   5.576
 5685WAT     H217598   2.247   6.437   5.446
 5686WAT      O17599   3.402   5.860   3.849
 5686WAT     H117600   3.341   5.785   3.872
 5686WAT     H217601   3.424   5.912   3.932
 5687WAT      O17602   3.165   6.424   3.766
 5687WAT     H117603   3.199   6.331   3.781
 5687WAT     H217604   3.183   6.451   3.671
 5688WAT      O17605   2.181   6.396   4.673
 5688WAT     H117606   2.274   6.432   4.678
 5688WAT     H217607   2.175   6.311   4.725
 5689WAT      O17608   2.201   6.095   4.730
 5689WAT     H117609   2.149   6.012   4.713
 5689WAT     H217610   2.278   6.100   4.666
 5690WAT      O17611   3.000   5.966   5.402
 5690WAT     H117612   2.955   6.029   5.466
 5690WAT     H217613   3.093   5.997   5.385
 5691WAT      O17614   3.022   5.793   5.201
 5691WAT     H117615   3.022   5.857   5.278
 5691WAT     H217616   3.050   5.841   5.118
 5692WAT      O17617   1.870   6.912   3.924
 5692WAT     H117618   1.777   6.933   3.893
 5692WAT     H217619   1.880   6.813   3.937
 5693WAT      O17620   2.864   6.382   4.962
 5693WAT     H117621   2.905   6.350   5.048
 5693WAT     H217622   2.768   6.355   4.959
 5694WAT      O17623   1.902   6.130   4.838
 5694WAT     H117624   1.987   6.097   4.797
 5694WAT     H217625   1.915   6.145   4.936
 5695WAT      O17626   2.051   6.106   5.446
 5695WAT     H117627   2.110   6.066   5.376
 5695WAT     H217628   1.993   6.177   5.405
 5696WAT      O17629   3.231   6.536   5.384
 5696WAT     H117630   3.270   6.625   5.404
 5696WAT     H217631   3.241   6.516   5.287
 5697WAT      O17632   2.677   6.158   4.049
 5697WAT     H117633   2.684   6.069   4.003
 5697WAT     H217634   2.583   6.192   4.041
 5698WAT      O17635   3.519   6.190   4.930
 5698WAT     H117636   3.481   6.121   4.992
 5698WAT     H217637   3.601   6.154   4.886
 5699WAT      O17638   2.533   6.050   4.993
 5699WAT     H117639   2.499   5.961   4.963
 5699WAT     H217640   2.559   6.104   4.913
 5700WAT      O17641   2.335   6.086   3.915
 5700WAT     H117642   2.396   6.166   3.919
 5700WAT     H217643   2.240   6.117   3.922
 5701WAT      O17644   2.021   6.723   5.190
 5701WAT     H117645   2.043   6.662   5.266
 5701WAT     H217646   2.031   6.674   5.104
 5702WAT      O17647   3.209   6.645   4.958
 5702WAT     H117648   3.233   6.582   4.884
 5702WAT     H217649   3.119   6.685   4.940
 5703WAT      O17650   3.164   6.441   4.033
 5703WAT     H117651   3.078   6.410   4.075
 5703WAT     H217652   3.160   6.427   3.934
 5704WAT      O17653   1.945   6.844   4.746
 5704WAT     H117654   1.940   6.843   4.846
 5704WAT     H217655   1.862   6.803   4.708
 5705WAT      O17656   3.588   5.721   4.247
 5705WAT     H117657   3.661   5.704   4.180
 5705WAT     H217658   3.557   5.634   4.285
 5706WAT      O17659   3.142   6.513   4.396
 5706WAT     H117660   3.202   6.432   4.398
 5706WAT     H217661   3.182   6.582   4.336
 5707WAT      O17662   2.692   6.859   5.146
 5707WAT     H117663   2.687   6.892   5.241
 5707WAT     H217664   2.606   6.878   5.100
 5708WAT      O17665   3.703   5.761   4.687
 5708WAT     H117666   3.742   5.676   4.651
 5708WAT     H217667   3.605   5.763   4.668
 5709WAT      O17668   2.125   5.912   4.444
 5709WAT     H117669   2.046   5.963   4.410
 5709WAT     H217670   2.116   5.897   4.542
 5710WAT      O17671   3.056   7.198   3.755
 5710WAT     H117672   3.062   7.105   3.792
 5710WAT     H217673   2.997   7.198   3.675
 5711WAT      O17674   2.684   6.588   5.096
 5711WAT     H117675   2.724   6.587   5.004
 5711WAT     H217676   2.694   6.680   5.136
 5712WAT      O17677   2.778   6.496   4.015
 5712WAT     H117678   2.841   6.534   3.947
 5712WAT     H217679   2.818   6.413   4.054
 5713WAT      O17680   2.234   6.874   5.214
 5713WAT     H117681   2.221   6.967   5.180
 5713WAT     H217682   2.150   6.822   5.201
 5714WAT      O17683   3.476   6.878   5.013
 5714WAT     H117684   3.536   6.881   5.093
 5714WAT     H217685   3.401   6.942   5.026
 5715WAT      O17686   2.901   6.684   4.420
 5715WAT     H117687   2.831   6.637   4.474
 5715WAT     H217688   2.960   6.616   4.377
 5716WAT      O17689   2.876   5.822   4.695
 5716WAT     H117690   2.868   5.786   4.602
 5716WAT     H217691   2.874   5.746   4.760
 5717WAT      O17692   3.571   5.971   5.105
 5717WAT     H117693   3.644   6.040   5.109
 5717WAT     H217694   3.599   5.896   5.046
 5718WAT      O17695   1.967   6.599   5.450
 5718WAT     H117696   1.890   6.566   5.504
 5718WAT     H217697   2.052   6.569   5.492
 5719WAT      O17698   2.534   5.789   5.213
 5719WAT     H117699   2.624   5.773   5.173
 5719WAT     H217700   2.542   5.794   5.312
 5720WAT      O17701   1.937   5.931   3.757
 5720WAT     H117702   1.845   5.903   3.728
 5720WAT     H217703   1.968   6.008   3.701
 5721WAT      O17704   3.302   6.442   5.122
 5721WAT     H117705   3.245   6.494   5.059
 5721WAT     H217706   3.398   6.454   5.098
 5722WAT      O17707   1.934   5.752   4.042
 5722WAT     H117708   1.917   5.835   3.988
 5722WAT     H217709   2.024   5.715   4.020
 5723WAT      O17710   2.475   6.428   5.155
 5723WAT     H117711   2.531   6.509   5.138
 5723WAT     H217712   2.534   6.348   5.158
 5724WAT      O17713   2.578   6.151   5.432
 5724WAT     H117714   2.597   6.216   5.506
 5724WAT     H217715   2.638   6.071   5.441
 5725WAT      O17716   3.312   6.806   5.357
 5725WAT     H117717   3.303   6.796   5.456
 5725WAT     H217718   3.408   6.799   5.331
 5726WAT      O17719   3.536   6.469   4.978
 5726WAT     H117720   3.509   6.380   4.941
 5726WAT     H217721   3.537   6.537   4.905
 5727WAT      O17722   3.087   5.911   4.173
 5727WAT     H117723   3.152   5.837   4.162
 5727WAT     H217724   3.107   5.961   4.257
 5728WAT      O17725   2.456   6.331   4.376
 5728WAT     H117726   2.506   6.416   4.357
 5728WAT     H217727   2.368   6.333   4.328
 5729WAT      O17728   3.639   5.928   5.366
 5729WAT     H117729   3.622   5.959   5.272
 5729WAT     H217730   3.555   5.891   5.404
 5730WAT      O17731   3.592   6.520   5.241
 5730WAT     H117732   3.630   6.611   5.256
 5730WAT     H217733   3.584   6.503   5.142
 5731WAT      O17734   2.721   6.542   4.585
 5731WAT     H117735   2.775   6.473   4.633
 5731WAT     H217736   2.689   6.611   4.651
 5732WAT      O17737   2.945   6.570   3.811
 5732WAT     H117738   2.922   6.623   3.729
 5732WAT     H217739   3.026   6.514   3.792
 5733WAT      O17740   2.083   6.900   5.568
 5733WAT     H117741   2.018   6.827   5.547
 5733WAT     H217742   2.087   6.914   5.666
 5734WAT      O17743   1.941   6.826   4.377
 5734WAT     H117744   1.940   6.779   4.465
 5734WAT     H217745   2.023   6.798   4.326
 5735WAT      O17746   2.534   6.977   5.348
 5735WAT     H117747   2.456   6.927   5.386
 5735WAT     H217748   2.531   7.072   5.379
 5736WAT      O17749   3.686   5.778   4.951
 5736WAT     H117750   3.682   5.688   4.995
 5736WAT     H217751   3.689   5.767   4.852
 5737WAT      O17752   2.290   6.010   4.244
 5737WAT     H117753   2.320   5.938   4.182
 5737WAT     H217754   2.251   5.970   4.327
 5738WAT      O17755   3.567   7.073   4.828
 5738WAT     H117756   3.474   7.048   4.801
 5738WAT     H217757   3.593   7.023   4.910
 5739WAT      O17758   2.179   6.133   5.004
 5739WAT     H117759   2.217   6.074   5.076
 5739WAT     H217760   2.219   6.107   4.916
 5740WAT      O17761   3.286   5.800   4.836
 5740WAT     H117762   3.338   5.735   4.891
 5740WAT     H217763   3.237   5.863   4.897
 5741WAT      O17764   2.863   5.620   4.878
 5741WAT     H117765   2.800   5.548   4.847
 5741WAT     H217766   2.956   5.584   4.878
 5742WAT      O17767   2.632   6.916   4.025
 5742WAT     H117768   2.586   6.829   4.042
 5742WAT     H217769   2.723   6.913   4.066
 5743WAT      O17770   3.214   5.638   3.892
 5743WAT     H117771   3.249   5.597   3.808
 5743WAT     H217772   3.124   5.600   3.912
 5744WAT      O17773   3.162   6.039   4.415
 5744WAT     H117774   3.103   6.119   4.419
 5744WAT     H217775   3.177   6.004   4.508
 5745WAT      O17776   3.455   5.807   4.606
 5745WAT     H117777   3.371   5.806   4.660
 5745WAT     H217778   3.457   5.890   4.550
 5746WAT      O17779   1.901   6.663   4.024
 5746WAT     H117780   2.000   6.652   4.015
 5746WAT     H217781   1.861   6.577   4.056
 5747WAT      O17782   2.092   6.214   5.699
 5747WAT     H117783   1.999   6.212   5.736
 5747WAT     H217784   2.093   6.175   5.607
 5748WAT      O17785   2.087   5.861   6.582
 5748WAT     H117786   2.122   5.844   6.674
 5748WAT     H217787   1.999   5.816   6.570
 5749WAT      O17788   1.881   5.954   6.233
 5749WAT     H117789   1.799   5.997   6.272
 5749WAT     H217790   1.853   5.881   6.170
 5750WAT      O17791   2.431   6.861   6.751
 5750WAT     H117792   2.338   6.854   6.714
 5750WAT     H217793   2.442   6.950   6.795
 5751WAT      O17794   3.417   7.097   6.289
 5751WAT     H117795   3.360   7.081   6.370
 5751WAT     H217796   3.358   7.107   6.209
 5752WAT      O17797   2.997   6.289   6.303
 5752WAT     H117798   3.054   6.367   6.278
 5752WAT     H217799   2.937   6.315   6.379
 5753WAT      O17800   3.617   6.193   5.817
 5753WAT     H117801   3.605   6.180   5.718
 5753WAT     H217802   3.587   6.112   5.866
 5754WAT      O17803   2.630   6.730   6.609
 5754WAT     H117804   2.552   6.747   6.669
 5754WAT     H217805   2.664   6.817   6.573
 5755WAT      O17806   2.547   6.598   6.251
 5755WAT     H117807   2.616   6.582   6.321
 5755WAT     H217808   2.474   6.655   6.289
 5756WAT      O17809   2.197   7.021   6.647
 5756WAT     H117810   2.119   6.990   6.594
 5756WAT     H217811   2.255   7.079   6.590
 5757WAT      O17812   3.465   6.033   6.323
 5757WAT     H117813   3.391   6.079   6.273
 5757WAT     H217814   3.516   6.101   6.376
 5758WAT      O17815   2.102   6.677   6.472
 5758WAT     H117816   2.116   6.593   6.524
 5758WAT     H217817   2.047   6.741   6.527
 5759WAT      O17818   2.468   6.550   5.709
 5759WAT     H117819   2.475   6.634   5.655
 5759WAT     H217820   2.514   6.563   5.797
 5760WAT      O17821   1.984   6.229   6.149
 5760WAT     H117822   1.939   6.141   6.166
 5760WAT     H217823   1.983   6.283   6.233
 5761WAT      O17824   3.551   6.508   6.198
 5761WAT     H117825   3.646   6.479   6.206
 5761WAT     H217826   3.543   6.573   6.123
 5762WAT      O17827   3.503   6.694   6.018
 5762WAT     H117828   3.589   6.696   5.966
 5762WAT     H217829   3.517   6.741   6.106
 5763WAT      O17830   2.671   5.590   6.088
 5763WAT     H117831   2.711   5.681   6.079
 5763WAT     H217832   2.571   5.598   6.094
 5764WAT      O17833   2.059   6.562   6.850
 5764WAT     H117834   2.148   6.517   6.836
 5764WAT     H217835   1.986   6.497   6.831
 5765WAT      O17836   3.387   6.585   5.776
 5765WAT     H117837   3.324   6.509   5.789
 5765WAT     H217838   3.435   6.603   5.862
 5766WAT      O17839   3.328   7.003   6.539
 5766WAT     H117840   3.269   7.009   6.619
 5766WAT     H217841   3.313   6.915   6.493
 5767WAT      O17842   2.460   6.315   5.856
 5767WAT     H117843   2.484   6.384   5.788
 5767WAT     H217844   2.382   6.348   5.910
 5768WAT      O17845   3.143   5.931   6.530
 5768WAT     H117846   3.057   5.881   6.517
 5768WAT     H217847   3.205   5.877   6.586
 5769WAT      O17848   2.669   6.191   7.051
 5769WAT     H117849   2.622   6.188   7.140
 5769WAT     H217850   2.618   6.136   6.985
 5770WAT      O17851   2.853   5.996   6.828
 5770WAT     H117852   2.776   6.030   6.882
 5770WAT     H217853   2.819   5.945   6.749
 5771WAT      O17854   2.903   6.287   6.015
 5771WAT     H117855   2.929   6.283   6.111
 5771WAT     H217856   2.818   6.236   6.001
 5772WAT      O17857   1.938   6.397   6.375
 5772WAT     H117858   2.037   6.385   6.384
 5772WAT     H217859   1.914   6.492   6.396
 5773WAT      O17860   2.727   5.934   5.781
 5773WAT     H117861   2.786   5.997   5.732
 5773WAT     H217862   2.746   5.840   5.752
 5774WAT      O17863   3.224   6.730   6.131
 5774WAT     H117864   3.307   6.701   6.083
 5774WAT     H217865   3.175   6.797   6.075
 5775WAT      O17866   2.412   5.782   6.471
 5775WAT     H117867   2.407   5.777   6.571
 5775WAT     H217868   2.414   5.878   6.442
 5776WAT      O17869   3.657   6.652   6.459
 5776WAT     H117870   3.595   6.637   6.383
 5776WAT     H217871   3.605   6.663   6.544
 5777WAT      O17872   2.183   6.529   5.828
 5777WAT     H117873   2.265   6.568   5.786
 5777WAT     H217874   2.156   6.447   5.779
 5778WAT      O17875   3.320   6.321   6.314
 5778WAT     H117876   3.315   6.256   6.389
 5778WAT     H217877   3.400   6.380   6.327
 5779WAT      O17878   3.494   6.963   5.667
 5779WAT     H117879   3.462   7.057   5.657
 5779WAT     H217880   3.418   6.900   5.655
 5780WAT      O17881   3.262   5.693   6.012
 5780WAT     H117882   3.238   5.656   5.922
 5780WAT     H217883   3.361   5.709   6.016
 5781WAT      O17884   2.244   6.286   6.066
 5781WAT     H117885   2.289   6.196   6.063
 5781WAT     H217886   2.150   6.275   6.099
 5782WAT      O17887   2.476   5.708   5.703
 5782WAT     H117888   2.574   5.686   5.710
 5782WAT     H217889   2.445   5.691   5.610
 5783WAT      O17890   2.784   6.089   6.485
 5783WAT     H117891   2.759   6.080   6.389
 5783WAT     H217892   2.832   6.007   6.516
 5784WAT      O17893   2.401   5.650   6.098
 5784WAT     H117894   2.320   5.651   6.156
 5784WAT     H217895   2.404   5.733   6.043
 5785WAT      O17896   3.296   6.774   5.627
 5785WAT     H117897   3.328   6.698   5.684
 5785WAT     H217898   3.204   6.801   5.657
 5786WAT      O17899   2.159   5.621   5.757
 5786WAT     H117900   2.208   5.705   5.736
 5786WAT     H217901   2.221   5.556   5.802
 5787WAT      O17902   2.797   5.822   6.066
 5787WAT     H117903   2.749   5.863   5.988
 5787WAT     H217904   2.896   5.820   6.047
 5788WAT      O17905   3.089   7.156   6.379
 5788WAT     H117906   3.110   7.230   6.314
 5788WAT     H217907   3.157   7.156   6.452
 5789WAT      O17908   2.321   6.738   6.327
 5789WAT     H117909   2.250   6.711   6.392
 5789WAT     H217910   2.295   6.710   6.234
 5790WAT      O17911   2.894   6.135   5.602
 5790WAT     H117912   2.853   6.217   5.563
 5790WAT     H217913   2.958   6.161   5.675
 5791WAT      O17914   2.423   5.808   6.733
 5791WAT     H117915   2.461   5.724   6.770
 5791WAT     H217916   2.335   5.827   6.777
 5792WAT      O17917   2.728   6.040   6.228
 5792WAT     H117918   2.696   6.112   6.166
 5792WAT     H217919   2.752   5.959   6.175
 5793WAT      O17920   2.879   5.625   6.339
 5793WAT     H117921   2.807   5.630   6.270
 5793WAT     H217922   2.855   5.556   6.408
 5794WAT      O17923   3.291   6.759   6.453
 5794WAT     H117924   3.236   6.675   6.446
 5794WAT     H217925   3.317   6.788   6.361
 5795WAT      O17926   3.328   6.176   6.578
 5795WAT     H117927   3.298   6.081   6.585
 5795WAT     H217928   3.401   6.192   6.644
 5796WAT      O17929   3.719   6.419   5.963
 5796WAT     H117930   3.761   6.355   6.027
 5796WAT     H217931   3.681   6.368   5.885
 5797WAT      O17932   3.526   6.866   6.243
 5797WAT     H117933   3.625   6.874   6.257
 5797WAT     H217934   3.481   6.950   6.274
 5798WAT      O17935   3.252   6.161   5.664
 5798WAT     H117936   3.198   6.140   5.745
 5798WAT     H217937   3.343   6.120   5.673
 5799WAT      O17938   2.389   5.842   5.914
 5799WAT     H117939   2.416   5.783   5.839
 5799WAT     H217940   2.389   5.937   5.883
 5800WAT      O17941   3.616   6.809   7.174
 5800WAT     H117942   3.707   6.770   7.161
 5800WAT     H217943   3.624   6.905   7.198
 5801WAT      O17944   2.926   6.933   6.926
 5801WAT     H117945   2.846   6.910   6.981
 5801WAT     H217946   3.009   6.907   6.975
 5802WAT      O17947   2.973   6.781   6.686
 5802WAT     H117948   2.933   6.825   6.767
 5802WAT     H217949   2.932   6.818   6.603
 5803WAT      O17950   3.500   6.685   6.665
 5803WAT     H117951   3.505   6.766   6.724
 5803WAT     H217952   3.414   6.687   6.614
 5804WAT      O17953   2.567   6.636   5.954
 5804WAT     H117954   2.553   6.643   6.053
 5804WAT     H217955   2.651   6.585   5.936
 5805WAT      O17956   2.272   6.399   6.837
 5805WAT     H117957   2.358   6.411   6.887
 5805WAT     H217958   2.230   6.312   6.864
 5806WAT      O17959   3.136   5.972   6.848
 5806WAT     H117960   3.157   6.046   6.912
 5806WAT     H217961   3.047   5.989   6.805
 5807WAT      O17962   2.229   6.686   6.087
 5807WAT     H117963   2.222   6.769   6.031
 5807WAT     H217964   2.233   6.606   6.027
 5808WAT      O17965   2.428   6.123   6.451
 5808WAT     H117966   2.440   6.189   6.377
 5808WAT     H217967   2.474   6.157   6.534
 5809WAT      O17968   3.444   6.225   6.058
 5809WAT     H117969   3.413   6.286   6.131
 5809WAT     H217970   3.494   6.277   5.989
 5810WAT      O17971   2.435   6.456   6.615
 5810WAT     H117972   2.479   6.545   6.606
 5810WAT     H217973   2.372   6.456   6.692
 5811WAT      O17974   3.222   6.448   6.631
 5811WAT     H117975   3.147   6.448   6.565
 5811WAT     H217976   3.259   6.356   6.640
 5812WAT      O17977   3.071   6.111   5.861
 5812WAT     H117978   3.084   6.027   5.915
 5812WAT     H217979   3.042   6.185   5.921
 5813WAT      O17980   2.169   5.799   6.817
 5813WAT     H117981   2.146   5.836   6.907
 5813WAT     H217982   2.139   5.704   6.811
 5814WAT      O17983   1.899   6.896   6.868
 5814WAT     H117984   1.952   6.847   6.936
 5814WAT     H217985   1.921   6.994   6.873
 5815WAT      O17986   2.594   6.220   6.650
 5815WAT     H117987   2.653   6.194   6.574
 5815WAT     H217988   2.566   6.316   6.639
 5816WAT      O17989   2.169   5.649   6.204
 5816WAT     H117990   2.158   5.743   6.237
 5816WAT     H217991   2.164   5.586   6.281
 5817WAT      O17992   3.484   5.953   5.960
 5817WAT     H117993   3.486   5.877   6.024
 5817WAT     H217994   3.436   6.030   6.000
 5818WAT      O17995   2.885   6.352   6.552
 5818WAT     H117996   2.900   6.373   6.648
 5818WAT     H217997   2.855   6.257   6.543
 5819WAT      O17998   3.402   5.860   5.711
 5819WAT     H117999   3.341   5.785   5.734
 5819WAT     H218000   3.424   5.912   5.794
 5820WAT      O18001   3.165   6.424   5.628
 5820WAT     H118002   3.199   6.331   5.643
 5820WAT     H218003   3.183   6.451   5.533
 5821WAT      O18004   2.181   6.396   6.535
 5821WAT     H118005   2.274   6.432   6.540
 5821WAT     H218006   2.175   6.311   6.587
 5822WAT      O18007   2.201   6.095   6.592
 5822WAT     H118008   2.149   6.012   6.575
 5822WAT     H218009   2.278   6.100   6.528
 5823WAT      O18010   3.022   5.793   7.063
 5823WAT     H118011   3.022   5.857   7.140
 5823WAT     H218012   3.050   5.841   6.980
 5824WAT      O18013   1.870   6.912   5.786
 5824WAT     H118014   1.777   6.933   5.755
 5824WAT     H218015   1.880   6.813   5.799
 5825WAT      O18016   2.864   6.382   6.824
 5825WAT     H118017   2.905   6.350   6.910
 5825WAT     H218018   2.768   6.355   6.821
 5826WAT      O18019   1.902   6.130   6.700
 5826WAT     H118020   1.987   6.097   6.659
 5826WAT     H218021   1.915   6.145   6.798
 5827WAT      O18022   2.677   6.158   5.911
 5827WAT     H118023   2.684   6.069   5.865
 5827WAT     H218024   2.583   6.192   5.903
 5828WAT      O18025   3.519   6.190   6.792
 5828WAT     H118026   3.481   6.121   6.854
 5828WAT     H218027   3.601   6.154   6.748
 5829WAT      O18028   2.533   6.050   6.855
 5829WAT     H118029   2.499   5.961   6.825
 5829WAT     H218030   2.559   6.104   6.775
 5830WAT      O18031   2.335   6.086   5.777
 5830WAT     H118032   2.396   6.166   5.781
 5830WAT     H218033   2.240   6.117   5.784
 5831WAT      O18034   2.021   6.723   7.052
 5831WAT     H118035   2.043   6.662   7.128
 5831WAT     H218036   2.031   6.674   6.966
 5832WAT      O18037   3.209   6.645   6.820
 5832WAT     H118038   3.233   6.582   6.746
 5832WAT     H218039   3.119   6.685   6.802
 5833WAT      O18040   3.164   6.441   5.895
 5833WAT     H118041   3.078   6.410   5.937
 5833WAT     H218042   3.160   6.427   5.796
 5834WAT      O18043   1.945   6.844   6.608
 5834WAT     H118044   1.940   6.843   6.708
 5834WAT     H218045   1.862   6.803   6.570
 5835WAT      O18046   3.588   5.721   6.109
 5835WAT     H118047   3.661   5.704   6.042
 5835WAT     H218048   3.557   5.634   6.147
 5836WAT      O18049   3.142   6.513   6.258
 5836WAT     H118050   3.202   6.432   6.260
 5836WAT     H218051   3.182   6.582   6.198
 5837WAT      O18052   2.692   6.859   7.008
 5837WAT     H118053   2.687   6.892   7.103
 5837WAT     H218054   2.606   6.878   6.962
 5838WAT      O18055   3.703   5.761   6.549
 5838WAT     H118056   3.742   5.676   6.513
 5838WAT     H218057   3.605   5.763   6.530
 5839WAT      O18058   2.125   5.912   6.306
 5839WAT     H118059   2.046   5.963   6.272
 5839WAT     H218060   2.116   5.897   6.404
 5840WAT      O18061   3.056   7.198   5.617
 5840WAT     H118062   3.062   7.105   5.654
 5840WAT     H218063   2.997   7.198   5.537
 5841WAT      O18064   2.684   6.588   6.958
 5841WAT     H118065   2.724   6.587   6.866
 5841WAT     H218066   2.694   6.680   6.998
 5842WAT      O18067   2.778   6.496   5.877
 5842WAT     H118068   2.841   6.534   5.809
 5842WAT     H218069   2.818   6.413   5.916
 5843WAT      O18070   2.234   6.874   7.076
 5843WAT     H118071   2.221   6.967   7.042
 5843WAT     H218072   2.150   6.822   7.063
 5844WAT      O18073   3.476   6.878   6.875
 5844WAT     H118074   3.536   6.881   6.955
 5844WAT     H218075   3.401   6.942   6.888
 5845WAT      O18076   2.901   6.684   6.282
 5845WAT     H118077   2.831   6.637   6.336
 5845WAT     H218078   2.960   6.616   6.239
 5846WAT      O18079   2.876   5.822   6.557
 5846WAT     H118080   2.868   5.786   6.464
 5846WAT     H218081   2.874   5.746   6.622
 5847WAT      O18082   3.571   5.971   6.967
 5847WAT     H118083   3.644   6.040   6.971
 5847WAT     H218084   3.599   5.896   6.908
 5848WAT      O18085   2.534   5.789   7.075
 5848WAT     H118086   2.624   5.773   7.035
 5848WAT     H218087   2.542   5.794   7.174
 5849WAT      O18088   1.937   5.931   5.619
 5849WAT     H118089   1.845   5.903   5.590
 5849WAT     H218090   1.968   6.008   5.563
 5850WAT      O18091   1.934   5.752   5.904
 5850WAT     H118092   1.917   5.835   5.850
 5850WAT     H218093   2.024   5.715   5.882
 5851WAT      O18094   3.312   6.806   7.219
 5851WAT     H118095   3.303   6.796   7.318
 5851WAT     H218096   3.408   6.799   7.193
 5852WAT      O18097   3.536   6.469   6.840
 5852WAT     H118098   3.509   6.380   6.803
 5852WAT     H218099   3.537   6.537   6.767
 5853WAT      O18100   3.087   5.911   6.035
 5853WAT     H118101   3.152   5.837   6.024
 5853WAT     H218102   3.107   5.961   6.119
 5854WAT      O18103   2.456   6.331   6.238
 5854WAT     H118104   2.506   6.416   6.219
 5854WAT     H218105   2.368   6.333   6.190
 5855WAT      O18106   3.592   6.520   7.103
 5855WAT     H118107   3.630   6.611   7.118
 5855WAT     H218108   3.584   6.503   7.004
 5856WAT      O18109   2.721   6.542   6.447
 5856WAT     H118110   2.775   6.473   6.495
 5856WAT     H218111   2.689   6.611   6.513
 5857WAT      O18112   2.945   6.570   5.673
 5857WAT     H118113   2.922   6.623   5.591
 5857WAT     H218114   3.026   6.514   5.654
 5858WAT      O18115   1.941   6.826   6.239
 5858WAT     H118116   1.940   6.779   6.327
 5858WAT     H218117   2.023   6.798   6.188
 5859WAT      O18118   3.686   5.778   6.813
 5859WAT     H118119   3.682   5.688   6.857
 5859WAT     H218120   3.689   5.767   6.714
 5860WAT      O18121   2.290   6.010   6.106
 5860WAT     H118122   2.320   5.938   6.044
 5860WAT     H218123   2.251   5.970   6.189
 5861WAT      O18124   3.567   7.073   6.690
 5861WAT     H118125   3.474   7.048   6.663
 5861WAT     H218126   3.593   7.023   6.772
 5862WAT      O18127   2.179   6.133   6.866
 5862WAT     H118128   2.217   6.074   6.938
 5862WAT     H218129   2.219   6.107   6.778
 5863WAT      O18130   3.286   5.800   6.698
 5863WAT     H118131   3.338   5.735   6.753
 5863WAT     H218132   3.237   5.863   6.759
 5864WAT      O18133   2.863   5.620   6.740
 5864WAT     H118134   2.800   5.548   6.709
 5864WAT     H218135   2.956   5.584   6.740
 5865WAT      O18136   2.632   6.916   5.887
 5865WAT     H118137   2.586   6.829   5.904
 5865WAT     H218138   2.723   6.913   5.928
 5866WAT      O18139   3.214   5.638   5.754
 5866WAT     H118140   3.249   5.597   5.670
 5866WAT     H218141   3.124   5.600   5.774
 5867WAT      O18142   3.162   6.039   6.277
 5867WAT     H118143   3.103   6.119   6.281
 5867WAT     H218144   3.177   6.004   6.370
 5868WAT      O18145   3.455   5.807   6.468
 5868WAT     H118146   3.371   5.806   6.522
 5868WAT     H218147   3.457   5.890   6.412
 5869WAT      O18148   1.901   6.663   5.886
 5869WAT     H118149   2.000   6.652   5.877
 5869WAT     H218150   1.861   6.577   5.918
 5870WAT      O18151   3.954   0.628   0.113
 5870WAT     H118152   3.861   0.626   0.150
 5870WAT     H218153   3.955   0.589   0.021
 5871WAT      O18154   3.949   0.275   0.996
 5871WAT     H118155   3.984   0.258   1.088
 5871WAT     H218156   3.861   0.230   0.984
 5872WAT      O18157   3.743   0.368   0.647
 5872WAT     H118158   3.661   0.411   0.686
 5872WAT     H218159   3.715   0.295   0.584
 5873WAT      O18160   4.293   1.275   1.165
 5873WAT     H118161   4.200   1.268   1.128
 5873WAT     H218162   4.304   1.364   1.209
 5874WAT      O18163   5.279   1.511   0.703
 5874WAT     H118164   5.222   1.495   0.784
 5874WAT     H218165   5.220   1.521   0.623
 5875WAT      O18166   4.859   0.703   0.717
 5875WAT     H118167   4.916   0.781   0.692
 5875WAT     H218168   4.799   0.729   0.793
 5876WAT      O18169   5.479   0.607   0.231
 5876WAT     H118170   5.467   0.594   0.132
 5876WAT     H218171   5.449   0.526   0.280
 5877WAT      O18172   4.492   1.144   1.023
 5877WAT     H118173   4.414   1.161   1.083
 5877WAT     H218174   4.526   1.231   0.987
 5878WAT      O18175   4.574   0.798   1.823
 5878WAT     H118176   4.570   0.874   1.888
 5878WAT     H218177   4.596   0.834   1.732
 5879WAT      O18178   4.409   1.012   0.665
 5879WAT     H118179   4.478   0.996   0.735
 5879WAT     H218180   4.336   1.069   0.703
 5880WAT      O18181   4.410   1.161   1.803
 5880WAT     H118182   4.470   1.240   1.817
 5880WAT     H218183   4.324   1.192   1.762
 5881WAT      O18184   4.059   1.435   1.061
 5881WAT     H118185   3.981   1.404   1.008
 5881WAT     H218186   4.117   1.493   1.004
 5882WAT      O18187   5.184   1.505   1.339
 5882WAT     H118188   5.208   1.599   1.365
 5882WAT     H218189   5.168   1.451   1.421
 5883WAT      O18190   4.162   0.392   1.499
 5883WAT     H118191   4.244   0.336   1.508
 5883WAT     H218192   4.081   0.334   1.503
 5884WAT      O18193   5.327   0.447   0.737
 5884WAT     H118194   5.253   0.493   0.687
 5884WAT     H218195   5.378   0.515   0.790
 5885WAT      O18196   3.955   1.713   0.483
 5885WAT     H118197   3.989   1.790   0.537
 5885WAT     H218198   3.999   1.713   0.393
 5886WAT      O18199   4.851   1.341   1.690
 5886WAT     H118200   4.898   1.341   1.778
 5886WAT     H218201   4.803   1.254   1.679
 5887WAT      O18202   3.954   1.434   0.538
 5887WAT     H118203   3.928   1.530   0.538
 5887WAT     H218204   3.883   1.380   0.583
 5888WAT      O18205   3.964   1.091   0.886
 5888WAT     H118206   3.978   1.007   0.938
 5888WAT     H218207   3.909   1.155   0.941
 5889WAT      O18208   4.344   1.786   1.439
 5889WAT     H118209   4.252   1.769   1.474
 5889WAT     H218210   4.372   1.878   1.465
 5890WAT      O18211   4.330   0.964   0.123
 5890WAT     H118212   4.337   1.048   0.069
 5890WAT     H218213   4.376   0.977   0.211
 5891WAT      O18214   5.318   0.114   1.480
 5891WAT     H118215   5.300   0.181   1.408
 5891WAT     H218216   5.315   0.160   1.569
 5892WAT      O18217   3.846   0.643   0.563
 5892WAT     H118218   3.801   0.555   0.580
 5892WAT     H218219   3.845   0.697   0.647
 5893WAT      O18220   5.566   1.767   0.359
 5893WAT     H118221   5.620   1.738   0.439
 5893WAT     H218222   5.596   1.857   0.330
 5894WAT      O18223   3.751   1.596   0.117
 5894WAT     H118224   3.732   1.500   0.138
 5894WAT     H218225   3.718   1.654   0.192
 5895WAT      O18226   5.413   0.922   0.612
 5895WAT     H118227   5.508   0.893   0.620
 5895WAT     H218228   5.405   0.987   0.537
 5896WAT      O18229   5.365   1.108   0.432
 5896WAT     H118230   5.451   1.110   0.380
 5896WAT     H218231   5.379   1.155   0.520
 5897WAT      O18232   3.837   0.737   1.597
 5897WAT     H118233   3.925   0.724   1.642
 5897WAT     H218234   3.824   0.834   1.575
 5898WAT      O18235   4.337   1.365   0.726
 5898WAT     H118236   4.288   1.278   0.735
 5898WAT     H218237   4.314   1.408   0.639
 5899WAT      O18238   5.017   1.228   1.423
 5899WAT     H118239   5.054   1.155   1.365
 5899WAT     H218240   5.069   1.233   1.508
 5900WAT      O18241   4.533   0.004   0.502
 5900WAT     H118242   4.573   0.095   0.493
 5900WAT     H218243   4.433   0.012   0.508
 5901WAT      O18244   3.921   0.976   1.264
 5901WAT     H118245   4.010   0.931   1.250
 5901WAT     H218246   3.848   0.911   1.245
 5902WAT      O18247   5.249   0.999   0.190
 5902WAT     H118248   5.186   0.923   0.203
 5902WAT     H218249   5.297   1.017   0.276
 5903WAT      O18250   4.911   1.792   1.616
 5903WAT     H118251   4.935   1.852   1.540
 5903WAT     H218252   4.918   1.697   1.586
 5904WAT      O18253   4.041   0.251   1.801
 5904WAT     H118254   4.112   0.322   1.807
 5904WAT     H218255   3.953   0.290   1.829
 5905WAT      O18256   5.190   1.417   0.953
 5905WAT     H118257   5.131   1.423   1.033
 5905WAT     H218258   5.175   1.329   0.907
 5906WAT      O18259   5.391   1.714   0.572
 5906WAT     H118260   5.350   1.691   0.484
 5906WAT     H218261   5.373   1.640   0.637
 5907WAT      O18262   4.322   0.729   0.270
 5907WAT     H118263   4.346   0.798   0.202
 5907WAT     H218264   4.244   0.762   0.324
 5908WAT      O18265   5.005   0.345   0.944
 5908WAT     H118266   4.919   0.295   0.931
 5908WAT     H218267   5.067   0.291   1.000
 5909WAT      O18268   5.300   1.662   0.307
 5909WAT     H118269   5.389   1.708   0.310
 5909WAT     H218270   5.279   1.638   0.212
 5910WAT      O18271   4.531   0.605   1.465
 5910WAT     H118272   4.484   0.602   1.554
 5910WAT     H218273   4.480   0.550   1.399
 5911WAT      O18274   5.118   0.469   1.674
 5911WAT     H118275   5.098   0.512   1.762
 5911WAT     H218276   5.196   0.407   1.683
 5912WAT      O18277   4.697   0.890   1.572
 5912WAT     H118278   4.743   0.806   1.543
 5912WAT     H218279   4.641   0.924   1.497
 5913WAT      O18280   4.715   0.410   1.242
 5913WAT     H118281   4.638   0.444   1.296
 5913WAT     H218282   4.681   0.359   1.163
 5914WAT      O18283   4.765   0.701   0.429
 5914WAT     H118284   4.791   0.697   0.525
 5914WAT     H218285   4.680   0.650   0.415
 5915WAT      O18286   3.800   0.811   0.789
 5915WAT     H118287   3.899   0.799   0.798
 5915WAT     H218288   3.776   0.906   0.810
 5916WAT      O18289   3.854   1.821   1.571
 5916WAT     H118290   3.844   1.806   1.670
 5916WAT     H218291   3.768   1.857   1.535
 5917WAT      O18292   4.589   0.348   0.195
 5917WAT     H118293   4.648   0.411   0.146
 5917WAT     H218294   4.608   0.254   0.166
 5918WAT      O18295   5.443   0.585   1.831
 5918WAT     H118296   5.417   0.674   1.795
 5918WAT     H218297   5.441   0.517   1.758
 5919WAT      O18298   5.086   1.144   0.545
 5919WAT     H118299   5.169   1.115   0.497
 5919WAT     H218300   5.037   1.211   0.489
 5920WAT      O18301   4.274   0.196   0.885
 5920WAT     H118302   4.269   0.191   0.985
 5920WAT     H218303   4.276   0.292   0.856
 5921WAT      O18304   4.732   1.456   0.477
 5921WAT     H118305   4.686   1.528   0.425
 5921WAT     H218306   4.728   1.476   0.575
 5922WAT      O18307   4.075   1.801   0.853
 5922WAT     H118308   4.125   1.715   0.859
 5922WAT     H218309   4.140   1.878   0.850
 5923WAT      O18310   5.519   1.066   0.873
 5923WAT     H118311   5.457   1.051   0.797
 5923WAT     H218312   5.467   1.077   0.958
 5924WAT      O18313   4.951   1.550   1.506
 5924WAT     H118314   4.957   1.473   1.570
 5924WAT     H218315   4.899   1.524   1.426
 5925WAT      O18316   4.045   0.943   0.242
 5925WAT     H118317   4.127   0.982   0.200
 5925WAT     H218318   4.018   0.861   0.193
 5926WAT      O18319   5.182   0.735   0.728
 5926WAT     H118320   5.177   0.670   0.803
 5926WAT     H218321   5.262   0.794   0.741
 5927WAT      O18322   4.185   1.266   1.727
 5927WAT     H118323   4.135   1.267   1.641
 5927WAT     H218324   4.122   1.248   1.803
 5928WAT      O18325   4.835   1.776   0.237
 5928WAT     H118326   4.775   1.714   0.287
 5928WAT     H218327   4.866   1.732   0.152
 5929WAT      O18328   3.926   0.285   1.498
 5929WAT     H118329   3.846   0.345   1.485
 5929WAT     H218330   3.916   0.236   1.584
 5930WAT      O18331   5.356   1.377   0.081
 5930WAT     H118332   5.324   1.471   0.071
 5930WAT     H218333   5.280   1.314   0.069
 5931WAT      O18334   4.188   1.743   0.323
 5931WAT     H118335   4.221   1.782   0.409
 5931WAT     H218336   4.264   1.736   0.258
 5932WAT      O18337   5.124   0.107   0.426
 5932WAT     H118338   5.100   0.070   0.336
 5932WAT     H218339   5.223   0.123   0.430
 5933WAT      O18340   3.973   1.785   1.241
 5933WAT     H118341   4.030   1.720   1.291
 5933WAT     H218342   3.957   1.752   1.148
 5934WAT      O18343   4.664   1.698   0.904
 5934WAT     H118344   4.744   1.641   0.925
 5934WAT     H218345   4.615   1.658   0.827
 5935WAT      O18346   4.106   0.700   0.480
 5935WAT     H118347   4.151   0.610   0.477
 5935WAT     H218348   4.012   0.689   0.513
 5936WAT      O18349   5.271   0.222   1.729
 5936WAT     H118350   5.266   0.259   1.821
 5936WAT     H218351   5.199   0.153   1.717
 5937WAT      O18352   4.338   0.122   0.117
 5937WAT     H118353   4.436   0.100   0.124
 5937WAT     H218354   4.307   0.105   0.024
 5938WAT      O18355   4.505   0.264   1.749
 5938WAT     H118356   4.572   0.203   1.792
 5938WAT     H218357   4.432   0.283   1.814
 5939WAT      O18358   4.612   1.514   1.195
 5939WAT     H118359   4.589   1.489   1.101
 5939WAT     H218360   4.673   1.445   1.234
 5940WAT      O18361   5.075   0.590   1.433
 5940WAT     H118362   5.103   0.547   1.518
 5940WAT     H218363   5.100   0.686   1.434
 5941WAT      O18364   4.527   1.402   0.924
 5941WAT     H118365   4.617   1.416   0.882
 5941WAT     H218366   4.456   1.404   0.853
 5942WAT      O18367   4.646   0.503   0.899
 5942WAT     H118368   4.621   0.494   0.803
 5942WAT     H218369   4.694   0.421   0.930
 5943WAT      O18370   4.263   0.064   0.512
 5943WAT     H118371   4.182   0.065   0.570
 5943WAT     H218372   4.266   0.147   0.457
 5944WAT      O18373   5.158   1.188   0.041
 5944WAT     H118374   5.190   1.112   0.098
 5944WAT     H218375   5.066   1.215   0.071
 5945WAT      O18376   4.021   0.035   0.171
 5945WAT     H118377   4.070   0.119   0.150
 5945WAT     H218378   4.083  -0.030   0.216
 5946WAT      O18379   4.659   0.236   0.480
 5946WAT     H118380   4.611   0.277   0.402
 5946WAT     H218381   4.758   0.234   0.461
 5947WAT      O18382   4.800   0.683   1.464
 5947WAT     H118383   4.720   0.622   1.467
 5947WAT     H218384   4.881   0.630   1.440
 5948WAT      O18385   4.951   1.570   0.793
 5948WAT     H118386   4.972   1.644   0.728
 5948WAT     H218387   5.019   1.570   0.866
 5949WAT      O18388   4.183   1.152   0.741
 5949WAT     H118389   4.112   1.125   0.806
 5949WAT     H218390   4.157   1.124   0.648
 5950WAT      O18391   4.995   1.797   0.591
 5950WAT     H118392   5.039   1.861   0.527
 5950WAT     H218393   4.945   1.849   0.661
 5951WAT      O18394   4.756   0.549   0.016
 5951WAT     H118395   4.715   0.631  -0.023
 5951WAT     H218396   4.820   0.575   0.089
 5952WAT      O18397   3.802   0.556   1.386
 5952WAT     H118398   3.894   0.555   1.345
 5952WAT     H218399   3.796   0.630   1.453
 5953WAT      O18400   4.285   0.222   1.147
 5953WAT     H118401   4.323   0.138   1.184
 5953WAT     H218402   4.197   0.241   1.191
 5954WAT      O18403   4.590   0.454   0.642
 5954WAT     H118404   4.558   0.526   0.580
 5954WAT     H218405   4.614   0.373   0.589
 5955WAT      O18406   4.741   0.039   0.753
 5955WAT     H118407   4.669   0.044   0.684
 5955WAT     H218408   4.717  -0.030   0.822
 5956WAT      O18409   5.153   1.173   0.867
 5956WAT     H118410   5.098   1.089   0.860
 5956WAT     H218411   5.179   1.202   0.775
 5957WAT      O18412   5.190   0.590   0.992
 5957WAT     H118413   5.160   0.495   0.999
 5957WAT     H218414   5.263   0.606   1.058
 5958WAT      O18415   5.581   0.833   0.377
 5958WAT     H118416   5.623   0.769   0.441
 5958WAT     H218417   5.543   0.782   0.299
 5959WAT      O18418   4.212   1.385   0.174
 5959WAT     H118419   4.125   1.370   0.221
 5959WAT     H218420   4.195   1.411   0.079
 5960WAT      O18421   5.388   1.280   0.657
 5960WAT     H118422   5.487   1.288   0.671
 5960WAT     H218423   5.343   1.364   0.688
 5961WAT      O18424   5.114   0.575   0.078
 5961WAT     H118425   5.060   0.554   0.159
 5961WAT     H218426   5.205   0.534   0.087
 5962WAT      O18427   4.251   0.256   0.328
 5962WAT     H118428   4.278   0.197   0.253
 5962WAT     H218429   4.251   0.351   0.297
 5963WAT      O18430   5.478   1.223   1.588
 5963WAT     H118431   5.569   1.184   1.575
 5963WAT     H218432   5.486   1.319   1.612
 5964WAT      O18433   4.788   1.347   1.340
 5964WAT     H118434   4.708   1.324   1.395
 5964WAT     H218435   4.871   1.321   1.389
 5965WAT      O18436   5.316   1.629   1.625
 5965WAT     H118437   5.343   1.663   1.535
 5965WAT     H218438   5.395   1.591   1.671
 5966WAT      O18439   4.835   1.195   1.100
 5966WAT     H118440   4.795   1.239   1.181
 5966WAT     H218441   4.794   1.232   1.017
 5967WAT      O18442   5.362   1.099   1.079
 5967WAT     H118443   5.367   1.180   1.138
 5967WAT     H218444   5.276   1.101   1.028
 5968WAT      O18445   4.639   0.089   1.402
 5968WAT     H118446   4.664   0.069   1.307
 5968WAT     H218447   4.711   0.145   1.444
 5969WAT      O18448   4.704   1.116   1.719
 5969WAT     H118449   4.605   1.122   1.729
 5969WAT     H218450   4.727   1.036   1.663
 5970WAT      O18451   4.429   1.050   0.368
 5970WAT     H118452   4.415   1.057   0.467
 5970WAT     H218453   4.513   0.999   0.350
 5971WAT      O18454   4.134   0.813   1.251
 5971WAT     H118455   4.220   0.825   1.301
 5971WAT     H218456   4.092   0.726   1.278
 5972WAT      O18457   4.998   0.386   1.262
 5972WAT     H118458   5.019   0.460   1.326
 5972WAT     H218459   4.909   0.403   1.219
 5973WAT      O18460   3.788   1.564   1.331
 5973WAT     H118461   3.742   1.646   1.297
 5973WAT     H218462   3.886   1.583   1.340
 5974WAT      O18463   4.091   1.100   0.501
 5974WAT     H118464   4.084   1.183   0.445
 5974WAT     H218465   4.095   1.020   0.441
 5975WAT      O18466   4.290   0.537   0.865
 5975WAT     H118467   4.302   0.603   0.791
 5975WAT     H218468   4.336   0.571   0.948
 5976WAT      O18469   4.976   1.348   0.388
 5976WAT     H118470   5.026   1.425   0.428
 5976WAT     H218471   4.881   1.350   0.420
 5977WAT      O18472   4.996   1.445   1.142
 5977WAT     H118473   5.043   1.458   1.229
 5977WAT     H218474   4.930   1.371   1.151
 5978WAT      O18475   5.306   0.639   0.472
 5978WAT     H118476   5.275   0.700   0.545
 5978WAT     H218477   5.356   0.691   0.403
 5979WAT      O18478   4.078   1.510   1.329
 5979WAT     H118479   4.057   1.466   1.242
 5979WAT     H218480   4.175   1.536   1.332
 5980WAT      O18481   4.126   0.751   1.598
 5980WAT     H118482   4.194   0.806   1.551
 5980WAT     H218483   4.166   0.663   1.625
 5981WAT      O18484   5.311   0.779   1.670
 5981WAT     H118485   5.219   0.817   1.665
 5981WAT     H218486   5.371   0.826   1.605
 5982WAT      O18487   4.737   0.105   1.770
 5982WAT     H118488   4.743   0.190   1.718
 5982WAT     H218489   4.769   0.029   1.713
 5983WAT      O18490   4.228   0.050   1.740
 5983WAT     H118491   4.186  -0.007   1.670
 5983WAT     H218492   4.162   0.119   1.772
 5984WAT      O18493   4.297   0.870   1.029
 5984WAT     H118494   4.341   0.959   1.020
 5984WAT     H218495   4.234   0.870   1.106
 5985WAT      O18496   5.084   0.862   1.045
 5985WAT     H118497   5.009   0.862   0.979
 5985WAT     H218498   5.121   0.770   1.054
 5986WAT      O18499   4.933   0.525   0.275
 5986WAT     H118500   4.946   0.441   0.329
 5986WAT     H218501   4.904   0.599   0.335
 5987WAT      O18502   4.031   0.213   1.231
 5987WAT     H118503   4.008   0.250   1.321
 5987WAT     H218504   4.001   0.118   1.225
 5988WAT      O18505   3.761   1.310   1.282
 5988WAT     H118506   3.814   1.261   1.350
 5988WAT     H218507   3.783   1.408   1.287
 5989WAT      O18508   4.456   0.634   1.064
 5989WAT     H118509   4.515   0.608   0.988
 5989WAT     H218510   4.428   0.730   1.053
 5990WAT      O18511   5.452   0.935   1.854
 5990WAT     H118512   5.406   0.928   1.765
 5990WAT     H218513   5.390   0.979   1.920
 5991WAT      O18514   4.031   0.063   0.618
 5991WAT     H118515   4.020   0.157   0.651
 5991WAT     H218516   4.026   0.000   0.695
 5992WAT      O18517   5.346   0.367   0.374
 5992WAT     H118518   5.348   0.291   0.438
 5992WAT     H218519   5.298   0.444   0.414
 5993WAT      O18520   4.747   0.766   0.966
 5993WAT     H118521   4.762   0.787   1.062
 5993WAT     H218522   4.717   0.671   0.957
 5994WAT      O18523   4.704   1.573   1.700
 5994WAT     H118524   4.684   1.617   1.612
 5994WAT     H218525   4.743   1.482   1.684
 5995WAT      O18526   5.583   1.518   1.605
 5995WAT     H118527   5.597   1.545   1.510
 5995WAT     H218528   5.666   1.540   1.658
 5996WAT      O18529   4.074   0.898   1.804
 5996WAT     H118530   4.150   0.942   1.852
 5996WAT     H218531   4.109   0.851   1.722
 5997WAT      O18532   5.264   0.274   0.125
 5997WAT     H118533   5.203   0.199   0.148
 5997WAT     H218534   5.286   0.326   0.208
 5998WAT      O18535   5.027   0.838   0.042
 5998WAT     H118536   5.061   0.745   0.057
 5998WAT     H218537   5.045   0.865  -0.053
 5999WAT      O18538   4.792   1.333   0.849
 5999WAT     H118539   4.799   1.249   0.794
 5999WAT     H218540   4.854   1.402   0.813
 6000WAT      O18541   4.043   0.810   0.949
 6000WAT     H118542   4.136   0.846   0.954
 6000WAT     H218543   4.037   0.725   1.001
 6001WAT      O18544   4.063   0.509   1.006
 6001WAT     H118545   4.011   0.426   0.989
 6001WAT     H218546   4.140   0.514   0.942
 6002WAT      O18547   4.862   0.380   1.678
 6002WAT     H118548   4.817   0.443   1.742
 6002WAT     H218549   4.955   0.411   1.661
 6003WAT      O18550   4.884   0.207   1.477
 6003WAT     H118551   4.884   0.271   1.554
 6003WAT     H218552   4.912   0.255   1.394
 6004WAT      O18553   3.812   1.801   0.927
 6004WAT     H118554   3.770   1.715   0.900
 6004WAT     H218555   3.906   1.804   0.893
 6005WAT      O18556   4.228   1.568   0.910
 6005WAT     H118557   4.294   1.642   0.919
 6005WAT     H218558   4.272   1.489   0.868
 6006WAT      O18559   4.726   0.796   1.238
 6006WAT     H118560   4.767   0.764   1.324
 6006WAT     H218561   4.630   0.769   1.235
 6007WAT      O18562   3.764   0.544   1.114
 6007WAT     H118563   3.849   0.511   1.073
 6007WAT     H218564   3.777   0.559   1.212
 6008WAT      O18565   3.913   0.520   1.722
 6008WAT     H118566   3.972   0.480   1.652
 6008WAT     H218567   3.855   0.591   1.681
 6009WAT      O18568   5.093   0.950   1.660
 6009WAT     H118569   5.132   1.039   1.680
 6009WAT     H218570   5.103   0.930   1.563
 6010WAT      O18571   4.539   0.572   0.325
 6010WAT     H118572   4.546   0.483   0.279
 6010WAT     H218573   4.445   0.606   0.317
 6011WAT      O18574   5.381   0.604   1.206
 6011WAT     H118575   5.343   0.535   1.268
 6011WAT     H218576   5.463   0.568   1.162
 6012WAT      O18577   3.976   1.564   1.744
 6012WAT     H118578   3.946   1.621   1.820
 6012WAT     H218579   3.969   1.467   1.770
 6013WAT      O18580   4.395   0.464   1.269
 6013WAT     H118581   4.361   0.375   1.239
 6013WAT     H218582   4.421   0.518   1.189
 6014WAT      O18583   4.654   1.678   1.465
 6014WAT     H118584   4.630   1.660   1.370
 6014WAT     H218585   4.684   1.772   1.475
 6015WAT      O18586   4.197   0.500   0.191
 6015WAT     H118587   4.258   0.580   0.195
 6015WAT     H218588   4.102   0.531   0.198
 6016WAT      O18589   3.883   1.137   1.466
 6016WAT     H118590   3.905   1.076   1.542
 6016WAT     H218591   3.893   1.088   1.380
 6017WAT      O18592   5.071   1.059   1.234
 6017WAT     H118593   5.095   0.996   1.160
 6017WAT     H218594   4.981   1.099   1.216
 6018WAT      O18595   5.026   0.855   0.309
 6018WAT     H118596   4.940   0.824   0.351
 6018WAT     H218597   5.022   0.841   0.210
 6019WAT      O18598   5.483   1.747   1.154
 6019WAT     H118599   5.544   1.777   1.081
 6019WAT     H218600   5.445   1.658   1.132
 6020WAT      O18601   4.976   1.731   1.128
 6020WAT     H118602   5.060   1.736   1.074
 6020WAT     H218603   4.953   1.635   1.146
 6021WAT      O18604   3.807   1.258   1.022
 6021WAT     H118605   3.802   1.257   1.122
 6021WAT     H218606   3.724   1.217   0.984
 6022WAT      O18607   4.412   1.662   1.716
 6022WAT     H118608   4.356   1.743   1.725
 6022WAT     H218609   4.464   1.666   1.630
 6023WAT      O18610   4.627   0.086   0.133
 6023WAT     H118611   4.678   0.087   0.047
 6023WAT     H218612   4.683   0.044   0.204
 6024WAT      O18613   5.450   0.135   0.523
 6024WAT     H118614   5.523   0.118   0.456
 6024WAT     H218615   5.419   0.048   0.561
 6025WAT      O18616   5.112   1.573   0.477
 6025WAT     H118617   5.179   1.585   0.403
 6025WAT     H218618   5.072   1.662   0.500
 6026WAT      O18619   3.854   1.794   1.851
 6026WAT     H118620   3.813   1.720   1.904
 6026WAT     H218621   3.918   1.845   1.909
 6027WAT      O18622   5.004   0.927   0.672
 6027WAT     H118623   5.064   0.846   0.674
 6027WAT     H218624   5.044   0.996   0.612
 6028WAT      O18625   4.554   1.273   1.422
 6028WAT     H118626   4.549   1.306   1.517
 6028WAT     H218627   4.468   1.292   1.376
 6029WAT      O18628   4.396   1.616   0.154
 6029WAT     H118629   4.405   1.626   0.055
 6029WAT     H218630   4.356   1.527   0.175
 6030WAT      O18631   5.374   1.720   1.394
 6030WAT     H118632   5.427   1.730   1.310
 6030WAT     H218633   5.347   1.810   1.428
 6031WAT      O18634   5.565   0.175   0.963
 6031WAT     H118635   5.604   0.090   0.927
 6031WAT     H218636   5.467   0.177   0.944
 6032WAT      O18637   3.987   0.326   0.720
 6032WAT     H118638   3.908   0.377   0.686
 6032WAT     H218639   3.978   0.311   0.818
 6033WAT      O18640   4.918   1.612   0.031
 6033WAT     H118641   4.924   1.519   0.068
 6033WAT     H218642   4.859   1.612  -0.049
 6034WAT      O18643   4.546   1.002   1.372
 6034WAT     H118644   4.586   1.001   1.280
 6034WAT     H218645   4.556   1.094   1.412
 6035WAT      O18646   4.640   0.910   0.291
 6035WAT     H118647   4.703   0.948   0.223
 6035WAT     H218648   4.680   0.827   0.330
 6036WAT      O18649   5.228   1.607   0.044
 6036WAT     H118650   5.136   1.644   0.051
 6036WAT     H218651   5.266   1.627  -0.046
 6037WAT      O18652   4.096   1.288   1.490
 6037WAT     H118653   4.083   1.381   1.456
 6037WAT     H218654   4.012   1.236   1.477
 6038WAT      O18655   5.338   1.292   1.289
 6038WAT     H118656   5.398   1.295   1.369
 6038WAT     H218657   5.263   1.356   1.302
 6039WAT      O18658   4.763   1.098   0.696
 6039WAT     H118659   4.693   1.051   0.750
 6039WAT     H218660   4.822   1.030   0.653
 6040WAT      O18661   4.738   0.236   0.971
 6040WAT     H118662   4.730   0.200   0.878
 6040WAT     H218663   4.736   0.160   1.036
 6041WAT      O18664   4.314   1.487   0.491
 6041WAT     H118665   4.356   1.429   0.421
 6041WAT     H218666   4.270   1.566   0.447
 6042WAT      O18667   5.433   0.385   1.381
 6042WAT     H118668   5.506   0.454   1.385
 6042WAT     H218669   5.461   0.310   1.322
 6043WAT      O18670   3.979   1.348   0.290
 6043WAT     H118671   3.883   1.349   0.263
 6043WAT     H218672   3.991   1.401   0.374
 6044WAT      O18673   3.829   1.013   1.726
 6044WAT     H118674   3.752   0.980   1.780
 6044WAT     H218675   3.914   0.983   1.768
 6045WAT      O18676   4.396   0.203   1.489
 6045WAT     H118677   4.486   0.187   1.449
 6045WAT     H218678   4.404   0.208   1.588
 6046WAT      O18679   3.799   0.345   0.033
 6046WAT     H118680   3.707   0.317   0.004
 6046WAT     H218681   3.830   0.422  -0.023
 6047WAT      O18682   5.164   0.856   1.398
 6047WAT     H118683   5.107   0.908   1.335
 6047WAT     H218684   5.260   0.868   1.374
 6048WAT      O18685   3.796   0.166   0.318
 6048WAT     H118686   3.779   0.249   0.264
 6048WAT     H218687   3.886   0.129   0.296
 6049WAT      O18688   4.907   1.335   0.119
 6049WAT     H118689   4.808   1.324   0.121
 6049WAT     H218690   4.941   1.350   0.212
 6050WAT      O18691   4.337   0.842   1.431
 6050WAT     H118692   4.393   0.923   1.414
 6050WAT     H218693   4.396   0.762   1.434
 6051WAT      O18694   5.217   1.767   0.959
 6051WAT     H118695   5.250   1.831   0.890
 6051WAT     H218696   5.283   1.761   1.034
 6052WAT      O18697   4.440   0.565   1.708
 6052WAT     H118698   4.459   0.630   1.782
 6052WAT     H218699   4.500   0.485   1.717
 6053WAT      O18700   5.174   1.220   1.633
 6053WAT     H118701   5.165   1.210   1.732
 6053WAT     H218702   5.270   1.213   1.607
 6054WAT      O18703   4.114   1.741   1.560
 6054WAT     H118704   4.023   1.782   1.558
 6054WAT     H218705   4.107   1.647   1.592
 6055WAT      O18706   5.398   0.883   1.254
 6055WAT     H118707   5.371   0.794   1.217
 6055WAT     H218708   5.399   0.951   1.181
 6056WAT      O18709   4.949   0.325   0.449
 6056WAT     H118710   5.014   0.251   0.438
 6056WAT     H218711   4.969   0.375   0.533
 6057WAT      O18712   4.318   0.745   0.652
 6057WAT     H118713   4.368   0.830   0.633
 6057WAT     H218714   4.230   0.747   0.604
 6058WAT      O18715   5.501   0.342   1.642
 6058WAT     H118716   5.484   0.373   1.548
 6058WAT     H218717   5.417   0.305   1.680
 6059WAT      O18718   5.454   0.934   1.517
 6059WAT     H118719   5.492   1.025   1.532
 6059WAT     H218720   5.446   0.917   1.418
 6060WAT      O18721   4.583   1.374   0.016
 6060WAT     H118722   4.537   1.389   0.104
 6060WAT     H218723   4.627   1.459  -0.014
 6061WAT      O18724   4.385   1.790   0.953
 6061WAT     H118725   4.339   1.878   0.940
 6061WAT     H218726   4.484   1.802   0.946
 6062WAT      O18727   4.583   0.956   0.861
 6062WAT     H118728   4.637   0.887   0.909
 6062WAT     H218729   4.551   1.025   0.927
 6063WAT      O18730   4.807   0.984   0.087
 6063WAT     H118731   4.784   1.037   0.005
 6063WAT     H218732   4.888   0.928   0.068
 6064WAT      O18733   5.585   1.569   0.851
 6064WAT     H118734   5.514   1.557   0.781
 6064WAT     H218735   5.586   1.490   0.911
 6065WAT      O18736   3.945   1.314   1.844
 6065WAT     H118737   3.880   1.241   1.823
 6065WAT     H218738   3.949   1.328   1.942
 6066WAT      O18739   3.803   1.240   0.653
 6066WAT     H118740   3.802   1.193   0.741
 6066WAT     H218741   3.885   1.212   0.602
 6067WAT      O18742   4.396   1.391   1.624
 6067WAT     H118743   4.318   1.341   1.662
 6067WAT     H218744   4.393   1.486   1.655
 6068WAT      O18745   5.548   0.192   1.227
 6068WAT     H118746   5.544   0.102   1.271
 6068WAT     H218747   5.551   0.181   1.128
 6069WAT      O18748   4.152   0.424   0.520
 6069WAT     H118749   4.182   0.352   0.458
 6069WAT     H218750   4.113   0.384   0.603
 6070WAT      O18751   5.429   1.487   1.104
 6070WAT     H118752   5.336   1.462   1.077
 6070WAT     H218753   5.455   1.437   1.186
 6071WAT      O18754   4.041   0.547   1.280
 6071WAT     H118755   4.079   0.488   1.352
 6071WAT     H218756   4.081   0.521   1.192
 6072WAT      O18757   4.536   1.586   0.687
 6072WAT     H118758   4.568   1.596   0.593
 6072WAT     H218759   4.457   1.524   0.689
 6073WAT      O18760   5.148   0.214   1.112
 6073WAT     H118761   5.200   0.149   1.167
 6073WAT     H218762   5.099   0.277   1.173
 6074WAT      O18763   4.725   0.034   1.154
 6074WAT     H118764   4.662  -0.038   1.123
 6074WAT     H218765   4.818  -0.002   1.154
 6075WAT      O18766   4.494   1.330   0.301
 6075WAT     H118767   4.448   1.243   0.318
 6075WAT     H218768   4.585   1.327   0.342
 6076WAT      O18769   4.342   1.567   1.284
 6076WAT     H118770   4.337   1.649   1.341
 6076WAT     H218771   4.431   1.564   1.239
 6077WAT      O18772   5.076   0.052   0.168
 6077WAT     H118773   5.111   0.011   0.084
 6077WAT     H218774   4.986   0.014   0.188
 6078WAT      O18775   5.024   0.453   0.691
 6078WAT     H118776   4.965   0.533   0.695
 6078WAT     H218777   5.039   0.418   0.784
 6079WAT      O18778   5.317   0.221   0.882
 6079WAT     H118779   5.233   0.220   0.936
 6079WAT     H218780   5.319   0.304   0.826
 6080WAT      O18781   3.763   1.077   0.300
 6080WAT     H118782   3.862   1.066   0.291
 6080WAT     H218783   3.723   0.991   0.332
 6081WAT      O18784   4.599   1.646   0.337
 6081WAT     H118785   4.522   1.611   0.283
 6081WAT     H218786   4.567   1.717   0.399
 6082WAT      O18787   3.954   0.628   1.975
 6082WAT     H118788   3.861   0.626   2.012
 6082WAT     H218789   3.955   0.589   1.883
 6083WAT      O18790   3.949   0.275   2.858
 6083WAT     H118791   3.984   0.258   2.950
 6083WAT     H218792   3.861   0.230   2.846
 6084WAT      O18793   3.743   0.368   2.509
 6084WAT     H118794   3.661   0.411   2.548
 6084WAT     H218795   3.715   0.295   2.446
 6085WAT      O18796   4.293   1.275   3.027
 6085WAT     H118797   4.200   1.268   2.990
 6085WAT     H218798   4.304   1.364   3.071
 6086WAT      O18799   5.279   1.511   2.565
 6086WAT     H118800   5.222   1.495   2.646
 6086WAT     H218801   5.220   1.521   2.485
 6087WAT      O18802   4.859   0.703   2.579
 6087WAT     H118803   4.916   0.781   2.554
 6087WAT     H218804   4.799   0.729   2.655
 6088WAT      O18805   5.479   0.607   2.093
 6088WAT     H118806   5.467   0.594   1.994
 6088WAT     H218807   5.449   0.526   2.142
 6089WAT      O18808   4.492   1.144   2.885
 6089WAT     H118809   4.414   1.161   2.945
 6089WAT     H218810   4.526   1.231   2.849
 6090WAT      O18811   4.574   0.798   3.685
 6090WAT     H118812   4.570   0.874   3.750
 6090WAT     H218813   4.596   0.834   3.594
 6091WAT      O18814   4.409   1.012   2.527
 6091WAT     H118815   4.478   0.996   2.597
 6091WAT     H218816   4.336   1.069   2.565
 6092WAT      O18817   4.410   1.161   3.665
 6092WAT     H118818   4.470   1.240   3.679
 6092WAT     H218819   4.324   1.192   3.624
 6093WAT      O18820   4.059   1.435   2.923
 6093WAT     H118821   3.981   1.404   2.870
 6093WAT     H218822   4.117   1.493   2.866
 6094WAT      O18823   5.184   1.505   3.201
 6094WAT     H118824   5.208   1.599   3.227
 6094WAT     H218825   5.168   1.451   3.283
 6095WAT      O18826   4.162   0.392   3.361
 6095WAT     H118827   4.244   0.336   3.370
 6095WAT     H218828   4.081   0.334   3.365
 6096WAT      O18829   5.327   0.447   2.599
 6096WAT     H118830   5.253   0.493   2.549
 6096WAT     H218831   5.378   0.515   2.652
 6097WAT      O18832   3.955   1.713   2.345
 6097WAT     H118833   3.989   1.790   2.399
 6097WAT     H218834   3.999   1.713   2.255
 6098WAT      O18835   4.851   1.341   3.552
 6098WAT     H118836   4.898   1.341   3.640
 6098WAT     H218837   4.803   1.254   3.541
 6099WAT      O18838   3.954   1.434   2.400
 6099WAT     H118839   3.928   1.530   2.400
 6099WAT     H218840   3.883   1.380   2.445
 6100WAT      O18841   3.964   1.091   2.748
 6100WAT     H118842   3.978   1.007   2.800
 6100WAT     H218843   3.909   1.155   2.803
 6101WAT      O18844   4.344   1.786   3.301
 6101WAT     H118845   4.252   1.769   3.336
 6101WAT     H218846   4.372   1.878   3.327
 6102WAT      O18847   4.330   0.964   1.985
 6102WAT     H118848   4.337   1.048   1.931
 6102WAT     H218849   4.376   0.977   2.073
 6103WAT      O18850   5.318   0.114   3.342
 6103WAT     H118851   5.300   0.181   3.270
 6103WAT     H218852   5.315   0.160   3.431
 6104WAT      O18853   3.846   0.643   2.425
 6104WAT     H118854   3.801   0.555   2.442
 6104WAT     H218855   3.845   0.697   2.509
 6105WAT      O18856   5.566   1.767   2.221
 6105WAT     H118857   5.620   1.738   2.301
 6105WAT     H218858   5.596   1.857   2.192
 6106WAT      O18859   3.751   1.596   1.979
 6106WAT     H118860   3.732   1.500   2.000
 6106WAT     H218861   3.718   1.654   2.054
 6107WAT      O18862   5.413   0.922   2.474
 6107WAT     H118863   5.508   0.893   2.482
 6107WAT     H218864   5.405   0.987   2.399
 6108WAT      O18865   5.365   1.108   2.294
 6108WAT     H118866   5.451   1.110   2.242
 6108WAT     H218867   5.379   1.155   2.382
 6109WAT      O18868   3.837   0.737   3.459
 6109WAT     H118869   3.925   0.724   3.504
 6109WAT     H218870   3.824   0.834   3.437
 6110WAT      O18871   4.337   1.365   2.588
 6110WAT     H118872   4.288   1.278   2.597
 6110WAT     H218873   4.314   1.408   2.501
 6111WAT      O18874   5.017   1.228   3.285
 6111WAT     H118875   5.054   1.155   3.227
 6111WAT     H218876   5.069   1.233   3.370
 6112WAT      O18877   4.533   0.004   2.364
 6112WAT     H118878   4.573   0.095   2.355
 6112WAT     H218879   4.433   0.012   2.370
 6113WAT      O18880   3.921   0.976   3.126
 6113WAT     H118881   4.010   0.931   3.112
 6113WAT     H218882   3.848   0.911   3.107
 6114WAT      O18883   5.249   0.999   2.052
 6114WAT     H118884   5.186   0.923   2.065
 6114WAT     H218885   5.297   1.017   2.138
 6115WAT      O18886   4.911   1.792   3.478
 6115WAT     H118887   4.935   1.852   3.402
 6115WAT     H218888   4.918   1.697   3.448
 6116WAT      O18889   4.041   0.251   3.663
 6116WAT     H118890   4.112   0.322   3.669
 6116WAT     H218891   3.953   0.290   3.691
 6117WAT      O18892   5.190   1.417   2.815
 6117WAT     H118893   5.131   1.423   2.895
 6117WAT     H218894   5.175   1.329   2.769
 6118WAT      O18895   5.391   1.714   2.434
 6118WAT     H118896   5.350   1.691   2.346
 6118WAT     H218897   5.373   1.640   2.499
 6119WAT      O18898   4.322   0.729   2.132
 6119WAT     H118899   4.346   0.798   2.064
 6119WAT     H218900   4.244   0.762   2.186
 6120WAT      O18901   5.005   0.345   2.806
 6120WAT     H118902   4.919   0.295   2.793
 6120WAT     H218903   5.067   0.291   2.862
 6121WAT      O18904   5.300   1.662   2.169
 6121WAT     H118905   5.389   1.708   2.172
 6121WAT     H218906   5.279   1.638   2.074
 6122WAT      O18907   4.531   0.605   3.327
 6122WAT     H118908   4.484   0.602   3.416
 6122WAT     H218909   4.480   0.550   3.261
 6123WAT      O18910   5.118   0.469   3.536
 6123WAT     H118911   5.098   0.512   3.624
 6123WAT     H218912   5.196   0.407   3.545
 6124WAT      O18913   4.697   0.890   3.434
 6124WAT     H118914   4.743   0.806   3.405
 6124WAT     H218915   4.641   0.924   3.359
 6125WAT      O18916   4.715   0.410   3.104
 6125WAT     H118917   4.638   0.444   3.158
 6125WAT     H218918   4.681   0.359   3.025
 6126WAT      O18919   4.765   0.701   2.291
 6126WAT     H118920   4.791   0.697   2.387
 6126WAT     H218921   4.680   0.650   2.277
 6127WAT      O18922   3.800   0.811   2.651
 6127WAT     H118923   3.899   0.799   2.660
 6127WAT     H218924   3.776   0.906   2.672
 6128WAT      O18925   3.854   1.821   3.433
 6128WAT     H118926   3.844   1.806   3.532
 6128WAT     H218927   3.768   1.857   3.397
 6129WAT      O18928   4.589   0.348   2.057
 6129WAT     H118929   4.648   0.411   2.008
 6129WAT     H218930   4.608   0.254   2.028
 6130WAT      O18931   5.443   0.585   3.693
 6130WAT     H118932   5.417   0.674   3.657
 6130WAT     H218933   5.441   0.517   3.620
 6131WAT      O18934   5.086   1.144   2.407
 6131WAT     H118935   5.169   1.115   2.359
 6131WAT     H218936   5.037   1.211   2.351
 6132WAT      O18937   4.274   0.196   2.747
 6132WAT     H118938   4.269   0.191   2.847
 6132WAT     H218939   4.276   0.292   2.718
 6133WAT      O18940   4.732   1.456   2.339
 6133WAT     H118941   4.686   1.528   2.287
 6133WAT     H218942   4.728   1.476   2.437
 6134WAT      O18943   4.075   1.801   2.715
 6134WAT     H118944   4.125   1.715   2.721
 6134WAT     H218945   4.140   1.878   2.712
 6135WAT      O18946   5.519   1.066   2.735
 6135WAT     H118947   5.457   1.051   2.659
 6135WAT     H218948   5.467   1.077   2.820
 6136WAT      O18949   4.951   1.550   3.368
 6136WAT     H118950   4.957   1.473   3.432
 6136WAT     H218951   4.899   1.524   3.288
 6137WAT      O18952   4.045   0.943   2.104
 6137WAT     H118953   4.127   0.982   2.062
 6137WAT     H218954   4.018   0.861   2.055
 6138WAT      O18955   5.182   0.735   2.590
 6138WAT     H118956   5.177   0.670   2.665
 6138WAT     H218957   5.262   0.794   2.603
 6139WAT      O18958   4.185   1.266   3.589
 6139WAT     H118959   4.135   1.267   3.503
 6139WAT     H218960   4.122   1.248   3.665
 6140WAT      O18961   4.835   1.776   2.099
 6140WAT     H118962   4.775   1.714   2.149
 6140WAT     H218963   4.866   1.732   2.014
 6141WAT      O18964   3.926   0.285   3.360
 6141WAT     H118965   3.846   0.345   3.347
 6141WAT     H218966   3.916   0.236   3.446
 6142WAT      O18967   5.356   1.377   1.943
 6142WAT     H118968   5.324   1.471   1.933
 6142WAT     H218969   5.280   1.314   1.931
 6143WAT      O18970   4.188   1.743   2.185
 6143WAT     H118971   4.221   1.782   2.271
 6143WAT     H218972   4.264   1.736   2.120
 6144WAT      O18973   5.124   0.107   2.288
 6144WAT     H118974   5.100   0.070   2.198
 6144WAT     H218975   5.223   0.123   2.292
 6145WAT      O18976   3.973   1.785   3.103
 6145WAT     H118977   4.030   1.720   3.153
 6145WAT     H218978   3.957   1.752   3.010
 6146WAT      O18979   4.664   1.698   2.766
 6146WAT     H118980   4.744   1.641   2.787
 6146WAT     H218981   4.615   1.658   2.689
 6147WAT      O18982   4.106   0.700   2.342
 6147WAT     H118983   4.151   0.610   2.339
 6147WAT     H218984   4.012   0.689   2.375
 6148WAT      O18985   5.271   0.222   3.591
 6148WAT     H118986   5.266   0.259   3.683
 6148WAT     H218987   5.199   0.153   3.579
 6149WAT      O18988   4.338   0.122   1.979
 6149WAT     H118989   4.436   0.100   1.986
 6149WAT     H218990   4.307   0.105   1.886
 6150WAT      O18991   4.505   0.264   3.611
 6150WAT     H118992   4.572   0.203   3.654
 6150WAT     H218993   4.432   0.283   3.676
 6151WAT      O18994   4.612   1.514   3.057
 6151WAT     H118995   4.589   1.489   2.963
 6151WAT     H218996   4.673   1.445   3.096
 6152WAT      O18997   5.075   0.590   3.295
 6152WAT     H118998   5.103   0.547   3.380
 6152WAT     H218999   5.100   0.686   3.296
 6153WAT      O19000   4.527   1.402   2.786
 6153WAT     H119001   4.617   1.416   2.744
 6153WAT     H219002   4.456   1.404   2.715
 6154WAT      O19003   4.646   0.503   2.761
 6154WAT     H119004   4.621   0.494   2.665
 6154WAT     H219005   4.694   0.421   2.792
 6155WAT      O19006   4.263   0.064   2.374
 6155WAT     H119007   4.182   0.065   2.432
 6155WAT     H219008   4.266   0.147   2.319
 6156WAT      O19009   5.158   1.188   1.903
 6156WAT     H119010   5.190   1.112   1.960
 6156WAT     H219011   5.066   1.215   1.933
 6157WAT      O19012   4.021   0.035   2.033
 6157WAT     H119013   4.070   0.119   2.012
 6157WAT     H219014   4.083  -0.030   2.078
 6158WAT      O19015   4.659   0.236   2.342
 6158WAT     H119016   4.611   0.277   2.264
 6158WAT     H219017   4.758   0.234   2.323
 6159WAT      O19018   4.800   0.683   3.326
 6159WAT     H119019   4.720   0.622   3.329
 6159WAT     H219020   4.881   0.630   3.302
 6160WAT      O19021   4.951   1.570   2.655
 6160WAT     H119022   4.972   1.644   2.590
 6160WAT     H219023   5.019   1.570   2.728
 6161WAT      O19024   4.183   1.152   2.603
 6161WAT     H119025   4.112   1.125   2.668
 6161WAT     H219026   4.157   1.124   2.510
 6162WAT      O19027   4.995   1.797   2.453
 6162WAT     H119028   5.039   1.861   2.389
 6162WAT     H219029   4.945   1.849   2.523
 6163WAT      O19030   4.756   0.549   1.878
 6163WAT     H119031   4.715   0.631   1.839
 6163WAT     H219032   4.820   0.575   1.951
 6164WAT      O19033   3.802   0.556   3.248
 6164WAT     H119034   3.894   0.555   3.207
 6164WAT     H219035   3.796   0.630   3.315
 6165WAT      O19036   4.285   0.222   3.009
 6165WAT     H119037   4.323   0.138   3.046
 6165WAT     H219038   4.197   0.241   3.053
 6166WAT      O19039   4.590   0.454   2.504
 6166WAT     H119040   4.558   0.526   2.442
 6166WAT     H219041   4.614   0.373   2.451
 6167WAT      O19042   4.741   0.039   2.615
 6167WAT     H119043   4.669   0.044   2.546
 6167WAT     H219044   4.717  -0.030   2.684
 6168WAT      O19045   5.153   1.173   2.729
 6168WAT     H119046   5.098   1.089   2.722
 6168WAT     H219047   5.179   1.202   2.637
 6169WAT      O19048   5.190   0.590   2.854
 6169WAT     H119049   5.160   0.495   2.861
 6169WAT     H219050   5.263   0.606   2.920
 6170WAT      O19051   5.581   0.833   2.239
 6170WAT     H119052   5.623   0.769   2.303
 6170WAT     H219053   5.543   0.782   2.161
 6171WAT      O19054   4.212   1.385   2.036
 6171WAT     H119055   4.125   1.370   2.083
 6171WAT     H219056   4.195   1.411   1.941
 6172WAT      O19057   5.388   1.280   2.519
 6172WAT     H119058   5.487   1.288   2.533
 6172WAT     H219059   5.343   1.364   2.550
 6173WAT      O19060   5.114   0.575   1.940
 6173WAT     H119061   5.060   0.554   2.021
 6173WAT     H219062   5.205   0.534   1.949
 6174WAT      O19063   4.251   0.256   2.190
 6174WAT     H119064   4.278   0.197   2.115
 6174WAT     H219065   4.251   0.351   2.159
 6175WAT      O19066   5.478   1.223   3.450
 6175WAT     H119067   5.569   1.184   3.437
 6175WAT     H219068   5.486   1.319   3.474
 6176WAT      O19069   4.788   1.347   3.202
 6176WAT     H119070   4.708   1.324   3.257
 6176WAT     H219071   4.871   1.321   3.251
 6177WAT      O19072   5.316   1.629   3.487
 6177WAT     H119073   5.343   1.663   3.397
 6177WAT     H219074   5.395   1.591   3.533
 6178WAT      O19075   4.835   1.195   2.962
 6178WAT     H119076   4.795   1.239   3.043
 6178WAT     H219077   4.794   1.232   2.879
 6179WAT      O19078   5.362   1.099   2.941
 6179WAT     H119079   5.367   1.180   3.000
 6179WAT     H219080   5.276   1.101   2.890
 6180WAT      O19081   4.639   0.089   3.264
 6180WAT     H119082   4.664   0.069   3.169
 6180WAT     H219083   4.711   0.145   3.306
 6181WAT      O19084   4.704   1.116   3.581
 6181WAT     H119085   4.605   1.122   3.591
 6181WAT     H219086   4.727   1.036   3.525
 6182WAT      O19087   4.429   1.050   2.230
 6182WAT     H119088   4.415   1.057   2.329
 6182WAT     H219089   4.513   0.999   2.212
 6183WAT      O19090   4.134   0.813   3.113
 6183WAT     H119091   4.220   0.825   3.163
 6183WAT     H219092   4.092   0.726   3.140
 6184WAT      O19093   4.998   0.386   3.124
 6184WAT     H119094   5.019   0.460   3.188
 6184WAT     H219095   4.909   0.403   3.081
 6185WAT      O19096   3.788   1.564   3.193
 6185WAT     H119097   3.742   1.646   3.159
 6185WAT     H219098   3.886   1.583   3.202
 6186WAT      O19099   4.091   1.100   2.363
 6186WAT     H119100   4.084   1.183   2.307
 6186WAT     H219101   4.095   1.020   2.303
 6187WAT      O19102   4.290   0.537   2.727
 6187WAT     H119103   4.302   0.603   2.653
 6187WAT     H219104   4.336   0.571   2.810
 6188WAT      O19105   4.976   1.348   2.250
 6188WAT     H119106   5.026   1.425   2.290
 6188WAT     H219107   4.881   1.350   2.282
 6189WAT      O19108   4.996   1.445   3.004
 6189WAT     H119109   5.043   1.458   3.091
 6189WAT     H219110   4.930   1.371   3.013
 6190WAT      O19111   5.306   0.639   2.334
 6190WAT     H119112   5.275   0.700   2.407
 6190WAT     H219113   5.356   0.691   2.265
 6191WAT      O19114   4.078   1.510   3.191
 6191WAT     H119115   4.057   1.466   3.104
 6191WAT     H219116   4.175   1.536   3.194
 6192WAT      O19117   4.126   0.751   3.460
 6192WAT     H119118   4.194   0.806   3.413
 6192WAT     H219119   4.166   0.663   3.487
 6193WAT      O19120   5.311   0.779   3.532
 6193WAT     H119121   5.219   0.817   3.527
 6193WAT     H219122   5.371   0.826   3.467
 6194WAT      O19123   4.737   0.105   3.632
 6194WAT     H119124   4.743   0.190   3.580
 6194WAT     H219125   4.769   0.029   3.575
 6195WAT      O19126   4.228   0.050   3.602
 6195WAT     H119127   4.186  -0.007   3.532
 6195WAT     H219128   4.162   0.119   3.634
 6196WAT      O19129   4.297   0.870   2.891
 6196WAT     H119130   4.341   0.959   2.882
 6196WAT     H219131   4.234   0.870   2.968
 6197WAT      O19132   5.084   0.862   2.907
 6197WAT     H119133   5.009   0.862   2.841
 6197WAT     H219134   5.121   0.770   2.916
 6198WAT      O19135   4.933   0.525   2.137
 6198WAT     H119136   4.946   0.441   2.191
 6198WAT     H219137   4.904   0.599   2.197
 6199WAT      O19138   4.031   0.213   3.093
 6199WAT     H119139   4.008   0.250   3.183
 6199WAT     H219140   4.001   0.118   3.087
 6200WAT      O19141   3.761   1.310   3.144
 6200WAT     H119142   3.814   1.261   3.212
 6200WAT     H219143   3.783   1.408   3.149
 6201WAT      O19144   4.456   0.634   2.926
 6201WAT     H119145   4.515   0.608   2.850
 6201WAT     H219146   4.428   0.730   2.915
 6202WAT      O19147   5.452   0.935   3.716
 6202WAT     H119148   5.406   0.928   3.627
 6202WAT     H219149   5.390   0.979   3.782
 6203WAT      O19150   4.031   0.063   2.480
 6203WAT     H119151   4.020   0.157   2.513
 6203WAT     H219152   4.026   0.000   2.557
 6204WAT      O19153   5.346   0.367   2.236
 6204WAT     H119154   5.348   0.291   2.300
 6204WAT     H219155   5.298   0.444   2.276
 6205WAT      O19156   4.747   0.766   2.828
 6205WAT     H119157   4.762   0.787   2.924
 6205WAT     H219158   4.717   0.671   2.819
 6206WAT      O19159   4.704   1.573   3.562
 6206WAT     H119160   4.684   1.617   3.474
 6206WAT     H219161   4.743   1.482   3.546
 6207WAT      O19162   5.583   1.518   3.467
 6207WAT     H119163   5.597   1.545   3.372
 6207WAT     H219164   5.666   1.540   3.520
 6208WAT      O19165   4.074   0.898   3.666
 6208WAT     H119166   4.150   0.942   3.714
 6208WAT     H219167   4.109   0.851   3.584
 6209WAT      O19168   5.264   0.274   1.987
 6209WAT     H119169   5.203   0.199   2.010
 6209WAT     H219170   5.286   0.326   2.070
 6210WAT      O19171   5.027   0.838   1.904
 6210WAT     H119172   5.061   0.745   1.919
 6210WAT     H219173   5.045   0.865   1.809
 6211WAT      O19174   4.792   1.333   2.711
 6211WAT     H119175   4.799   1.249   2.656
 6211WAT     H219176   4.854   1.402   2.675
 6212WAT      O19177   4.043   0.810   2.811
 6212WAT     H119178   4.136   0.846   2.816
 6212WAT     H219179   4.037   0.725   2.863
 6213WAT      O19180   4.063   0.509   2.868
 6213WAT     H119181   4.011   0.426   2.851
 6213WAT     H219182   4.140   0.514   2.804
 6214WAT      O19183   4.862   0.380   3.540
 6214WAT     H119184   4.817   0.443   3.604
 6214WAT     H219185   4.955   0.411   3.523
 6215WAT      O19186   4.884   0.207   3.339
 6215WAT     H119187   4.884   0.271   3.416
 6215WAT     H219188   4.912   0.255   3.256
 6216WAT      O19189   3.732   1.326   2.062
 6216WAT     H119190   3.639   1.347   2.031
 6216WAT     H219191   3.742   1.227   2.075
 6217WAT      O19192   3.812   1.801   2.789
 6217WAT     H119193   3.770   1.715   2.762
 6217WAT     H219194   3.906   1.804   2.755
 6218WAT      O19195   4.228   1.568   2.772
 6218WAT     H119196   4.294   1.642   2.781
 6218WAT     H219197   4.272   1.489   2.730
 6219WAT      O19198   4.726   0.796   3.100
 6219WAT     H119199   4.767   0.764   3.186
 6219WAT     H219200   4.630   0.769   3.097
 6220WAT      O19201   3.764   0.544   2.976
 6220WAT     H119202   3.849   0.511   2.935
 6220WAT     H219203   3.777   0.559   3.074
 6221WAT      O19204   3.913   0.520   3.584
 6221WAT     H119205   3.972   0.480   3.514
 6221WAT     H219206   3.855   0.591   3.543
 6222WAT      O19207   5.093   0.950   3.522
 6222WAT     H119208   5.132   1.039   3.542
 6222WAT     H219209   5.103   0.930   3.425
 6223WAT      O19210   4.539   0.572   2.187
 6223WAT     H119211   4.546   0.483   2.141
 6223WAT     H219212   4.445   0.606   2.179
 6224WAT      O19213   5.381   0.604   3.068
 6224WAT     H119214   5.343   0.535   3.130
 6224WAT     H219215   5.463   0.568   3.024
 6225WAT      O19216   3.976   1.564   3.606
 6225WAT     H119217   3.946   1.621   3.682
 6225WAT     H219218   3.969   1.467   3.632
 6226WAT      O19219   4.395   0.464   3.131
 6226WAT     H119220   4.361   0.375   3.101
 6226WAT     H219221   4.421   0.518   3.051
 6227WAT      O19222   4.654   1.678   3.327
 6227WAT     H119223   4.630   1.660   3.232
 6227WAT     H219224   4.684   1.772   3.337
 6228WAT      O19225   4.197   0.500   2.053
 6228WAT     H119226   4.258   0.580   2.057
 6228WAT     H219227   4.102   0.531   2.060
 6229WAT      O19228   3.883   1.137   3.328
 6229WAT     H119229   3.905   1.076   3.404
 6229WAT     H219230   3.893   1.088   3.242
 6230WAT      O19231   5.071   1.059   3.096
 6230WAT     H119232   5.095   0.996   3.022
 6230WAT     H219233   4.981   1.099   3.078
 6231WAT      O19234   5.026   0.855   2.171
 6231WAT     H119235   4.940   0.824   2.213
 6231WAT     H219236   5.022   0.841   2.072
 6232WAT      O19237   5.483   1.747   3.016
 6232WAT     H119238   5.544   1.777   2.943
 6232WAT     H219239   5.445   1.658   2.994
 6233WAT      O19240   4.976   1.731   2.990
 6233WAT     H119241   5.060   1.736   2.936
 6233WAT     H219242   4.953   1.635   3.008
 6234WAT      O19243   3.807   1.258   2.884
 6234WAT     H119244   3.802   1.257   2.984
 6234WAT     H219245   3.724   1.217   2.846
 6235WAT      O19246   4.412   1.662   3.578
 6235WAT     H119247   4.356   1.743   3.587
 6235WAT     H219248   4.464   1.666   3.492
 6236WAT      O19249   5.450   0.135   2.385
 6236WAT     H119250   5.523   0.118   2.318
 6236WAT     H219251   5.419   0.048   2.423
 6237WAT      O19252   5.112   1.573   2.339
 6237WAT     H119253   5.179   1.585   2.265
 6237WAT     H219254   5.072   1.662   2.362
 6238WAT      O19255   3.854   1.794   3.713
 6238WAT     H119256   3.813   1.720   3.766
 6238WAT     H219257   3.918   1.845   3.771
 6239WAT      O19258   5.004   0.927   2.534
 6239WAT     H119259   5.064   0.846   2.536
 6239WAT     H219260   5.044   0.996   2.474
 6240WAT      O19261   4.554   1.273   3.284
 6240WAT     H119262   4.549   1.306   3.379
 6240WAT     H219263   4.468   1.292   3.238
 6241WAT      O19264   4.396   1.616   2.016
 6241WAT     H119265   4.405   1.626   1.917
 6241WAT     H219266   4.356   1.527   2.037
 6242WAT      O19267   5.374   1.720   3.256
 6242WAT     H119268   5.427   1.730   3.172
 6242WAT     H219269   5.347   1.810   3.290
 6243WAT      O19270   5.565   0.175   2.825
 6243WAT     H119271   5.604   0.090   2.789
 6243WAT     H219272   5.467   0.177   2.806
 6244WAT      O19273   3.987   0.326   2.582
 6244WAT     H119274   3.908   0.377   2.548
 6244WAT     H219275   3.978   0.311   2.680
 6245WAT      O19276   4.918   1.612   1.893
 6245WAT     H119277   4.924   1.519   1.930
 6245WAT     H219278   4.859   1.612   1.813
 6246WAT      O19279   4.546   1.002   3.234
 6246WAT     H119280   4.586   1.001   3.142
 6246WAT     H219281   4.556   1.094   3.274
 6247WAT      O19282   4.640   0.910   2.153
 6247WAT     H119283   4.703   0.948   2.085
 6247WAT     H219284   4.680   0.827   2.192
 6248WAT      O19285   5.228   1.607   1.906
 6248WAT     H119286   5.136   1.644   1.913
 6248WAT     H219287   5.266   1.627   1.816
 6249WAT      O19288   4.096   1.288   3.352
 6249WAT     H119289   4.083   1.381   3.318
 6249WAT     H219290   4.012   1.236   3.339
 6250WAT      O19291   5.338   1.292   3.151
 6250WAT     H119292   5.398   1.295   3.231
 6250WAT     H219293   5.263   1.356   3.164
 6251WAT      O19294   4.763   1.098   2.558
 6251WAT     H119295   4.693   1.051   2.612
 6251WAT     H219296   4.822   1.030   2.515
 6252WAT      O19297   4.738   0.236   2.833
 6252WAT     H119298   4.730   0.200   2.740
 6252WAT     H219299   4.736   0.160   2.898
 6253WAT      O19300   4.314   1.487   2.353
 6253WAT     H119301   4.356   1.429   2.283
 6253WAT     H219302   4.270   1.566   2.309
 6254WAT      O19303   5.433   0.385   3.243
 6254WAT     H119304   5.506   0.454   3.247
 6254WAT     H219305   5.461   0.310   3.184
 6255WAT      O19306   3.979   1.348   2.152
 6255WAT     H119307   3.883   1.349   2.125
 6255WAT     H219308   3.991   1.401   2.236
 6256WAT      O19309   3.829   1.013   3.588
 6256WAT     H119310   3.752   0.980   3.642
 6256WAT     H219311   3.914   0.983   3.630
 6257WAT      O19312   4.396   0.203   3.351
 6257WAT     H119313   4.486   0.187   3.311
 6257WAT     H219314   4.404   0.208   3.450
 6258WAT      O19315   3.799   0.345   1.895
 6258WAT     H119316   3.707   0.317   1.866
 6258WAT     H219317   3.830   0.422   1.839
 6259WAT      O19318   5.164   0.856   3.260
 6259WAT     H119319   5.107   0.908   3.197
 6259WAT     H219320   5.260   0.868   3.236
 6260WAT      O19321   3.796   0.166   2.180
 6260WAT     H119322   3.779   0.249   2.126
 6260WAT     H219323   3.886   0.129   2.158
 6261WAT      O19324   4.907   1.335   1.981
 6261WAT     H119325   4.808   1.324   1.983
 6261WAT     H219326   4.941   1.350   2.074
 6262WAT      O19327   4.337   0.842   3.293
 6262WAT     H119328   4.393   0.923   3.276
 6262WAT     H219329   4.396   0.762   3.296
 6263WAT      O19330   5.217   1.767   2.821
 6263WAT     H119331   5.250   1.831   2.752
 6263WAT     H219332   5.283   1.761   2.896
 6264WAT      O19333   4.440   0.565   3.570
 6264WAT     H119334   4.459   0.630   3.644
 6264WAT     H219335   4.500   0.485   3.579
 6265WAT      O19336   5.174   1.220   3.495
 6265WAT     H119337   5.165   1.210   3.594
 6265WAT     H219338   5.270   1.213   3.469
 6266WAT      O19339   4.114   1.741   3.422
 6266WAT     H119340   4.023   1.782   3.420
 6266WAT     H219341   4.107   1.647   3.454
 6267WAT      O19342   5.398   0.883   3.116
 6267WAT     H119343   5.371   0.794   3.079
 6267WAT     H219344   5.399   0.951   3.043
 6268WAT      O19345   4.949   0.325   2.311
 6268WAT     H119346   5.014   0.251   2.300
 6268WAT     H219347   4.969   0.375   2.395
 6269WAT      O19348   4.318   0.745   2.514
 6269WAT     H119349   4.368   0.830   2.495
 6269WAT     H219350   4.230   0.747   2.466
 6270WAT      O19351   5.501   0.342   3.504
 6270WAT     H119352   5.484   0.373   3.410
 6270WAT     H219353   5.417   0.305   3.542
 6271WAT      O19354   5.454   0.934   3.379
 6271WAT     H119355   5.492   1.025   3.394
 6271WAT     H219356   5.446   0.917   3.280
 6272WAT      O19357   4.583   1.374   1.878
 6272WAT     H119358   4.537   1.389   1.966
 6272WAT     H219359   4.627   1.459   1.848
 6273WAT      O19360   4.385   1.790   2.815
 6273WAT     H119361   4.339   1.878   2.802
 6273WAT     H219362   4.484   1.802   2.808
 6274WAT      O19363   4.583   0.956   2.723
 6274WAT     H119364   4.637   0.887   2.771
 6274WAT     H219365   4.551   1.025   2.789
 6275WAT      O19366   4.807   0.984   1.949
 6275WAT     H119367   4.784   1.037   1.867
 6275WAT     H219368   4.888   0.928   1.930
 6276WAT      O19369   5.585   1.569   2.713
 6276WAT     H119370   5.514   1.557   2.643
 6276WAT     H219371   5.586   1.490   2.773
 6277WAT      O19372   3.945   1.314   3.706
 6277WAT     H119373   3.880   1.241   3.685
 6277WAT     H219374   3.949   1.328   3.804
 6278WAT      O19375   3.803   1.240   2.515
 6278WAT     H119376   3.802   1.193   2.603
 6278WAT     H219377   3.885   1.212   2.464
 6279WAT      O19378   4.396   1.391   3.486
 6279WAT     H119379   4.318   1.341   3.524
 6279WAT     H219380   4.393   1.486   3.517
 6280WAT      O19381   5.548   0.192   3.089
 6280WAT     H119382   5.544   0.102   3.133
 6280WAT     H219383   5.551   0.181   2.990
 6281WAT      O19384   4.152   0.424   2.382
 6281WAT     H119385   4.182   0.352   2.320
 6281WAT     H219386   4.113   0.384   2.465
 6282WAT      O19387   5.429   1.487   2.966
 6282WAT     H119388   5.336   1.462   2.939
 6282WAT     H219389   5.455   1.437   3.048
 6283WAT      O19390   4.041   0.547   3.142
 6283WAT     H119391   4.079   0.488   3.214
 6283WAT     H219392   4.081   0.521   3.054
 6284WAT      O19393   4.536   1.586   2.549
 6284WAT     H119394   4.568   1.596   2.455
 6284WAT     H219395   4.457   1.524   2.551
 6285WAT      O19396   5.148   0.214   2.974
 6285WAT     H119397   5.200   0.149   3.029
 6285WAT     H219398   5.099   0.277   3.035
 6286WAT      O19399   4.725   0.034   3.016
 6286WAT     H119400   4.662  -0.038   2.985
 6286WAT     H219401   4.818  -0.002   3.016
 6287WAT      O19402   4.494   1.330   2.163
 6287WAT     H119403   4.448   1.243   2.180
 6287WAT     H219404   4.585   1.327   2.204
 6288WAT      O19405   4.342   1.567   3.146
 6288WAT     H119406   4.337   1.649   3.203
 6288WAT     H219407   4.431   1.564   3.101
 6289WAT      O19408   5.076   0.052   2.030
 6289WAT     H119409   5.111   0.011   1.946
 6289WAT     H219410   4.986   0.014   2.050
 6290WAT      O19411   5.024   0.453   2.553
 6290WAT     H119412   4.965   0.533   2.557
 6290WAT     H219413   5.039   0.418   2.646
 6291WAT      O19414   5.317   0.221   2.744
 6291WAT     H119415   5.233   0.220   2.798
 6291WAT     H219416   5.319   0.304   2.688
 6292WAT      O19417   3.763   1.077   2.162
 6292WAT     H119418   3.862   1.066   2.153
 6292WAT     H219419   3.723   0.991   2.194
 6293WAT      O19420   4.599   1.646   2.199
 6293WAT     H119421   4.522   1.611   2.145
 6293WAT     H219422   4.567   1.717   2.261
 6294WAT      O19423   3.954   0.628   3.837
 6294WAT     H119424   3.861   0.626   3.874
 6294WAT     H219425   3.955   0.589   3.745
 6295WAT      O19426   3.949   0.275   4.720
 6295WAT     H119427   3.984   0.258   4.812
 6295WAT     H219428   3.861   0.230   4.708
 6296WAT      O19429   3.743   0.368   4.371
 6296WAT     H119430   3.661   0.411   4.410
 6296WAT     H219431   3.715   0.295   4.308
 6297WAT      O19432   4.293   1.275   4.889
 6297WAT     H119433   4.200   1.268   4.852
 6297WAT     H219434   4.304   1.364   4.933
 6298WAT      O19435   5.279   1.511   4.427
 6298WAT     H119436   5.222   1.495   4.508
 6298WAT     H219437   5.220   1.521   4.347
 6299WAT      O19438   4.859   0.703   4.441
 6299WAT     H119439   4.916   0.781   4.416
 6299WAT     H219440   4.799   0.729   4.517
 6300WAT      O19441   5.479   0.607   3.955
 6300WAT     H119442   5.467   0.594   3.856
 6300WAT     H219443   5.449   0.526   4.004
 6301WAT      O19444   4.492   1.144   4.747
 6301WAT     H119445   4.414   1.161   4.807
 6301WAT     H219446   4.526   1.231   4.711
 6302WAT      O19447   4.574   0.798   5.547
 6302WAT     H119448   4.570   0.874   5.612
 6302WAT     H219449   4.596   0.834   5.456
 6303WAT      O19450   4.409   1.012   4.389
 6303WAT     H119451   4.478   0.996   4.459
 6303WAT     H219452   4.336   1.069   4.427
 6304WAT      O19453   4.410   1.161   5.527
 6304WAT     H119454   4.470   1.240   5.541
 6304WAT     H219455   4.324   1.192   5.486
 6305WAT      O19456   4.059   1.435   4.785
 6305WAT     H119457   3.981   1.404   4.732
 6305WAT     H219458   4.117   1.493   4.728
 6306WAT      O19459   5.184   1.505   5.063
 6306WAT     H119460   5.208   1.599   5.089
 6306WAT     H219461   5.168   1.451   5.145
 6307WAT      O19462   4.162   0.392   5.223
 6307WAT     H119463   4.244   0.336   5.232
 6307WAT     H219464   4.081   0.334   5.227
 6308WAT      O19465   5.327   0.447   4.461
 6308WAT     H119466   5.253   0.493   4.411
 6308WAT     H219467   5.378   0.515   4.514
 6309WAT      O19468   3.955   1.713   4.207
 6309WAT     H119469   3.989   1.790   4.261
 6309WAT     H219470   3.999   1.713   4.117
 6310WAT      O19471   4.851   1.341   5.414
 6310WAT     H119472   4.898   1.341   5.502
 6310WAT     H219473   4.803   1.254   5.403
 6311WAT      O19474   3.954   1.434   4.262
 6311WAT     H119475   3.928   1.530   4.262
 6311WAT     H219476   3.883   1.380   4.307
 6312WAT      O19477   3.964   1.091   4.610
 6312WAT     H119478   3.978   1.007   4.662
 6312WAT     H219479   3.909   1.155   4.665
 6313WAT      O19480   4.344   1.786   5.163
 6313WAT     H119481   4.252   1.769   5.198
 6313WAT     H219482   4.372   1.878   5.189
 6314WAT      O19483   4.330   0.964   3.847
 6314WAT     H119484   4.337   1.048   3.793
 6314WAT     H219485   4.376   0.977   3.935
 6315WAT      O19486   5.318   0.114   5.204
 6315WAT     H119487   5.300   0.181   5.132
 6315WAT     H219488   5.315   0.160   5.293
 6316WAT      O19489   3.846   0.643   4.287
 6316WAT     H119490   3.801   0.555   4.304
 6316WAT     H219491   3.845   0.697   4.371
 6317WAT      O19492   5.566   1.767   4.083
 6317WAT     H119493   5.620   1.738   4.163
 6317WAT     H219494   5.596   1.857   4.054
 6318WAT      O19495   3.751   1.596   3.841
 6318WAT     H119496   3.732   1.500   3.862
 6318WAT     H219497   3.718   1.654   3.916
 6319WAT      O19498   5.413   0.922   4.336
 6319WAT     H119499   5.508   0.893   4.344
 6319WAT     H219500   5.405   0.987   4.261
 6320WAT      O19501   5.365   1.108   4.156
 6320WAT     H119502   5.451   1.110   4.104
 6320WAT     H219503   5.379   1.155   4.244
 6321WAT      O19504   3.837   0.737   5.321
 6321WAT     H119505   3.925   0.724   5.366
 6321WAT     H219506   3.824   0.834   5.299
 6322WAT      O19507   4.337   1.365   4.450
 6322WAT     H119508   4.288   1.278   4.459
 6322WAT     H219509   4.314   1.408   4.363
 6323WAT      O19510   5.017   1.228   5.147
 6323WAT     H119511   5.054   1.155   5.089
 6323WAT     H219512   5.069   1.233   5.232
 6324WAT      O19513   4.533   0.004   4.226
 6324WAT     H119514   4.573   0.095   4.217
 6324WAT     H219515   4.433   0.012   4.232
 6325WAT      O19516   3.921   0.976   4.988
 6325WAT     H119517   4.010   0.931   4.974
 6325WAT     H219518   3.848   0.911   4.969
 6326WAT      O19519   5.249   0.999   3.914
 6326WAT     H119520   5.186   0.923   3.927
 6326WAT     H219521   5.297   1.017   4.000
 6327WAT      O19522   4.911   1.792   5.340
 6327WAT     H119523   4.935   1.852   5.264
 6327WAT     H219524   4.918   1.697   5.310
 6328WAT      O19525   4.041   0.251   5.525
 6328WAT     H119526   4.112   0.322   5.531
 6328WAT     H219527   3.953   0.290   5.553
 6329WAT      O19528   5.190   1.417   4.677
 6329WAT     H119529   5.131   1.423   4.757
 6329WAT     H219530   5.175   1.329   4.631
 6330WAT      O19531   5.391   1.714   4.296
 6330WAT     H119532   5.350   1.691   4.208
 6330WAT     H219533   5.373   1.640   4.361
 6331WAT      O19534   4.322   0.729   3.994
 6331WAT     H119535   4.346   0.798   3.926
 6331WAT     H219536   4.244   0.762   4.048
 6332WAT      O19537   5.005   0.345   4.668
 6332WAT     H119538   4.919   0.295   4.655
 6332WAT     H219539   5.067   0.291   4.724
 6333WAT      O19540   5.300   1.662   4.031
 6333WAT     H119541   5.389   1.708   4.034
 6333WAT     H219542   5.279   1.638   3.936
 6334WAT      O19543   4.531   0.605   5.189
 6334WAT     H119544   4.484   0.602   5.278
 6334WAT     H219545   4.480   0.550   5.123
 6335WAT      O19546   5.118   0.469   5.398
 6335WAT     H119547   5.098   0.512   5.486
 6335WAT     H219548   5.196   0.407   5.407
 6336WAT      O19549   4.697   0.890   5.296
 6336WAT     H119550   4.743   0.806   5.267
 6336WAT     H219551   4.641   0.924   5.221
 6337WAT      O19552   4.715   0.410   4.966
 6337WAT     H119553   4.638   0.444   5.020
 6337WAT     H219554   4.681   0.359   4.887
 6338WAT      O19555   4.765   0.701   4.153
 6338WAT     H119556   4.791   0.697   4.249
 6338WAT     H219557   4.680   0.650   4.139
 6339WAT      O19558   3.800   0.811   4.513
 6339WAT     H119559   3.899   0.799   4.522
 6339WAT     H219560   3.776   0.906   4.534
 6340WAT      O19561   3.854   1.821   5.295
 6340WAT     H119562   3.844   1.806   5.394
 6340WAT     H219563   3.768   1.857   5.259
 6341WAT      O19564   4.589   0.348   3.919
 6341WAT     H119565   4.648   0.411   3.870
 6341WAT     H219566   4.608   0.254   3.890
 6342WAT      O19567   5.443   0.585   5.555
 6342WAT     H119568   5.417   0.674   5.519
 6342WAT     H219569   5.441   0.517   5.482
 6343WAT      O19570   5.086   1.144   4.269
 6343WAT     H119571   5.169   1.115   4.221
 6343WAT     H219572   5.037   1.211   4.213
 6344WAT      O19573   4.274   0.196   4.609
 6344WAT     H119574   4.269   0.191   4.709
 6344WAT     H219575   4.276   0.292   4.580
 6345WAT      O19576   4.732   1.456   4.201
 6345WAT     H119577   4.686   1.528   4.149
 6345WAT     H219578   4.728   1.476   4.299
 6346WAT      O19579   4.075   1.801   4.577
 6346WAT     H119580   4.125   1.715   4.583
 6346WAT     H219581   4.140   1.878   4.574
 6347WAT      O19582   5.519   1.066   4.597
 6347WAT     H119583   5.457   1.051   4.521
 6347WAT     H219584   5.467   1.077   4.682
 6348WAT      O19585   4.951   1.550   5.230
 6348WAT     H119586   4.957   1.473   5.294
 6348WAT     H219587   4.899   1.524   5.150
 6349WAT      O19588   4.045   0.943   3.966
 6349WAT     H119589   4.127   0.982   3.924
 6349WAT     H219590   4.018   0.861   3.917
 6350WAT      O19591   5.182   0.735   4.452
 6350WAT     H119592   5.177   0.670   4.527
 6350WAT     H219593   5.262   0.794   4.465
 6351WAT      O19594   4.185   1.266   5.451
 6351WAT     H119595   4.135   1.267   5.365
 6351WAT     H219596   4.122   1.248   5.527
 6352WAT      O19597   4.835   1.776   3.961
 6352WAT     H119598   4.775   1.714   4.011
 6352WAT     H219599   4.866   1.732   3.876
 6353WAT      O19600   3.926   0.285   5.222
 6353WAT     H119601   3.846   0.345   5.209
 6353WAT     H219602   3.916   0.236   5.308
 6354WAT      O19603   5.356   1.377   3.805
 6354WAT     H119604   5.324   1.471   3.795
 6354WAT     H219605   5.280   1.314   3.793
 6355WAT      O19606   4.188   1.743   4.047
 6355WAT     H119607   4.221   1.782   4.133
 6355WAT     H219608   4.264   1.736   3.982
 6356WAT      O19609   5.124   0.107   4.150
 6356WAT     H119610   5.100   0.070   4.060
 6356WAT     H219611   5.223   0.123   4.154
 6357WAT      O19612   3.973   1.785   4.965
 6357WAT     H119613   4.030   1.720   5.015
 6357WAT     H219614   3.957   1.752   4.872
 6358WAT      O19615   4.664   1.698   4.628
 6358WAT     H119616   4.744   1.641   4.649
 6358WAT     H219617   4.615   1.658   4.551
 6359WAT      O19618   4.106   0.700   4.204
 6359WAT     H119619   4.151   0.610   4.201
 6359WAT     H219620   4.012   0.689   4.237
 6360WAT      O19621   5.271   0.222   5.453
 6360WAT     H119622   5.266   0.259   5.545
 6360WAT     H219623   5.199   0.153   5.441
 6361WAT      O19624   4.338   0.122   3.841
 6361WAT     H119625   4.436   0.100   3.848
 6361WAT     H219626   4.307   0.105   3.748
 6362WAT      O19627   4.505   0.264   5.473
 6362WAT     H119628   4.572   0.203   5.516
 6362WAT     H219629   4.432   0.283   5.538
 6363WAT      O19630   4.612   1.514   4.919
 6363WAT     H119631   4.589   1.489   4.825
 6363WAT     H219632   4.673   1.445   4.958
 6364WAT      O19633   5.075   0.590   5.157
 6364WAT     H119634   5.103   0.547   5.242
 6364WAT     H219635   5.100   0.686   5.158
 6365WAT      O19636   4.527   1.402   4.648
 6365WAT     H119637   4.617   1.416   4.606
 6365WAT     H219638   4.456   1.404   4.577
 6366WAT      O19639   4.646   0.503   4.623
 6366WAT     H119640   4.621   0.494   4.527
 6366WAT     H219641   4.694   0.421   4.654
 6367WAT      O19642   4.263   0.064   4.236
 6367WAT     H119643   4.182   0.065   4.294
 6367WAT     H219644   4.266   0.147   4.181
 6368WAT      O19645   5.158   1.188   3.765
 6368WAT     H119646   5.190   1.112   3.822
 6368WAT     H219647   5.066   1.215   3.795
 6369WAT      O19648   4.021   0.035   3.895
 6369WAT     H119649   4.070   0.119   3.874
 6369WAT     H219650   4.083  -0.030   3.940
 6370WAT      O19651   4.659   0.236   4.204
 6370WAT     H119652   4.611   0.277   4.126
 6370WAT     H219653   4.758   0.234   4.185
 6371WAT      O19654   4.800   0.683   5.188
 6371WAT     H119655   4.720   0.622   5.191
 6371WAT     H219656   4.881   0.630   5.164
 6372WAT      O19657   4.951   1.570   4.517
 6372WAT     H119658   4.972   1.644   4.452
 6372WAT     H219659   5.019   1.570   4.590
 6373WAT      O19660   4.183   1.152   4.465
 6373WAT     H119661   4.112   1.125   4.530
 6373WAT     H219662   4.157   1.124   4.372
 6374WAT      O19663   4.995   1.797   4.315
 6374WAT     H119664   5.039   1.861   4.251
 6374WAT     H219665   4.945   1.849   4.385
 6375WAT      O19666   4.756   0.549   3.740
 6375WAT     H119667   4.715   0.631   3.701
 6375WAT     H219668   4.820   0.575   3.813
 6376WAT      O19669   3.802   0.556   5.110
 6376WAT     H119670   3.894   0.555   5.069
 6376WAT     H219671   3.796   0.630   5.177
 6377WAT      O19672   4.285   0.222   4.871
 6377WAT     H119673   4.323   0.138   4.908
 6377WAT     H219674   4.197   0.241   4.915
 6378WAT      O19675   4.590   0.454   4.366
 6378WAT     H119676   4.558   0.526   4.304
 6378WAT     H219677   4.614   0.373   4.313
 6379WAT      O19678   4.741   0.039   4.477
 6379WAT     H119679   4.669   0.044   4.408
 6379WAT     H219680   4.717  -0.030   4.546
 6380WAT      O19681   5.153   1.173   4.591
 6380WAT     H119682   5.098   1.089   4.584
 6380WAT     H219683   5.179   1.202   4.499
 6381WAT      O19684   5.190   0.590   4.716
 6381WAT     H119685   5.160   0.495   4.723
 6381WAT     H219686   5.263   0.606   4.782
 6382WAT      O19687   5.581   0.833   4.101
 6382WAT     H119688   5.623   0.769   4.165
 6382WAT     H219689   5.543   0.782   4.023
 6383WAT      O19690   4.212   1.385   3.898
 6383WAT     H119691   4.125   1.370   3.945
 6383WAT     H219692   4.195   1.411   3.803
 6384WAT      O19693   5.388   1.280   4.381
 6384WAT     H119694   5.487   1.288   4.395
 6384WAT     H219695   5.343   1.364   4.412
 6385WAT      O19696   5.114   0.575   3.802
 6385WAT     H119697   5.060   0.554   3.883
 6385WAT     H219698   5.205   0.534   3.811
 6386WAT      O19699   4.251   0.256   4.052
 6386WAT     H119700   4.278   0.197   3.977
 6386WAT     H219701   4.251   0.351   4.021
 6387WAT      O19702   5.478   1.223   5.312
 6387WAT     H119703   5.569   1.184   5.299
 6387WAT     H219704   5.486   1.319   5.336
 6388WAT      O19705   4.788   1.347   5.064
 6388WAT     H119706   4.708   1.324   5.119
 6388WAT     H219707   4.871   1.321   5.113
 6389WAT      O19708   5.316   1.629   5.349
 6389WAT     H119709   5.343   1.663   5.259
 6389WAT     H219710   5.395   1.591   5.395
 6390WAT      O19711   4.835   1.195   4.824
 6390WAT     H119712   4.795   1.239   4.905
 6390WAT     H219713   4.794   1.232   4.741
 6391WAT      O19714   5.362   1.099   4.803
 6391WAT     H119715   5.367   1.180   4.862
 6391WAT     H219716   5.276   1.101   4.752
 6392WAT      O19717   4.639   0.089   5.126
 6392WAT     H119718   4.664   0.069   5.031
 6392WAT     H219719   4.711   0.145   5.168
 6393WAT      O19720   4.704   1.116   5.443
 6393WAT     H119721   4.605   1.122   5.453
 6393WAT     H219722   4.727   1.036   5.387
 6394WAT      O19723   4.429   1.050   4.092
 6394WAT     H119724   4.415   1.057   4.191
 6394WAT     H219725   4.513   0.999   4.074
 6395WAT      O19726   4.134   0.813   4.975
 6395WAT     H119727   4.220   0.825   5.025
 6395WAT     H219728   4.092   0.726   5.002
 6396WAT      O19729   4.998   0.386   4.986
 6396WAT     H119730   5.019   0.460   5.050
 6396WAT     H219731   4.909   0.403   4.943
 6397WAT      O19732   3.788   1.564   5.055
 6397WAT     H119733   3.742   1.646   5.021
 6397WAT     H219734   3.886   1.583   5.064
 6398WAT      O19735   4.091   1.100   4.225
 6398WAT     H119736   4.084   1.183   4.169
 6398WAT     H219737   4.095   1.020   4.165
 6399WAT      O19738   4.290   0.537   4.589
 6399WAT     H119739   4.302   0.603   4.515
 6399WAT     H219740   4.336   0.571   4.672
 6400WAT      O19741   4.976   1.348   4.112
 6400WAT     H119742   5.026   1.425   4.152
 6400WAT     H219743   4.881   1.350   4.144
 6401WAT      O19744   4.996   1.445   4.866
 6401WAT     H119745   5.043   1.458   4.953
 6401WAT     H219746   4.930   1.371   4.875
 6402WAT      O19747   5.306   0.639   4.196
 6402WAT     H119748   5.275   0.700   4.269
 6402WAT     H219749   5.356   0.691   4.127
 6403WAT      O19750   4.078   1.510   5.053
 6403WAT     H119751   4.057   1.466   4.966
 6403WAT     H219752   4.175   1.536   5.056
 6404WAT      O19753   4.126   0.751   5.322
 6404WAT     H119754   4.194   0.806   5.275
 6404WAT     H219755   4.166   0.663   5.349
 6405WAT      O19756   5.311   0.779   5.394
 6405WAT     H119757   5.219   0.817   5.389
 6405WAT     H219758   5.371   0.826   5.329
 6406WAT      O19759   4.737   0.105   5.494
 6406WAT     H119760   4.743   0.190   5.442
 6406WAT     H219761   4.769   0.029   5.437
 6407WAT      O19762   4.228   0.050   5.464
 6407WAT     H119763   4.186  -0.007   5.394
 6407WAT     H219764   4.162   0.119   5.496
 6408WAT      O19765   4.297   0.870   4.753
 6408WAT     H119766   4.341   0.959   4.744
 6408WAT     H219767   4.234   0.870   4.830
 6409WAT      O19768   5.084   0.862   4.769
 6409WAT     H119769   5.009   0.862   4.703
 6409WAT     H219770   5.121   0.770   4.778
 6410WAT      O19771   4.933   0.525   3.999
 6410WAT     H119772   4.946   0.441   4.053
 6410WAT     H219773   4.904   0.599   4.059
 6411WAT      O19774   4.031   0.213   4.955
 6411WAT     H119775   4.008   0.250   5.045
 6411WAT     H219776   4.001   0.118   4.949
 6412WAT      O19777   3.761   1.310   5.006
 6412WAT     H119778   3.814   1.261   5.074
 6412WAT     H219779   3.783   1.408   5.011
 6413WAT      O19780   4.456   0.634   4.788
 6413WAT     H119781   4.515   0.608   4.712
 6413WAT     H219782   4.428   0.730   4.777
 6414WAT      O19783   5.452   0.935   5.578
 6414WAT     H119784   5.406   0.928   5.489
 6414WAT     H219785   5.390   0.979   5.644
 6415WAT      O19786   4.031   0.063   4.342
 6415WAT     H119787   4.020   0.157   4.375
 6415WAT     H219788   4.026   0.000   4.419
 6416WAT      O19789   5.346   0.367   4.098
 6416WAT     H119790   5.348   0.291   4.162
 6416WAT     H219791   5.298   0.444   4.138
 6417WAT      O19792   4.747   0.766   4.690
 6417WAT     H119793   4.762   0.787   4.786
 6417WAT     H219794   4.717   0.671   4.681
 6418WAT      O19795   4.704   1.573   5.424
 6418WAT     H119796   4.684   1.617   5.336
 6418WAT     H219797   4.743   1.482   5.408
 6419WAT      O19798   5.583   1.518   5.329
 6419WAT     H119799   5.597   1.545   5.234
 6419WAT     H219800   5.666   1.540   5.382
 6420WAT      O19801   4.074   0.898   5.528
 6420WAT     H119802   4.150   0.942   5.576
 6420WAT     H219803   4.109   0.851   5.446
 6421WAT      O19804   5.264   0.274   3.849
 6421WAT     H119805   5.203   0.199   3.872
 6421WAT     H219806   5.286   0.326   3.932
 6422WAT      O19807   5.027   0.838   3.766
 6422WAT     H119808   5.061   0.745   3.781
 6422WAT     H219809   5.045   0.865   3.671
 6423WAT      O19810   4.792   1.333   4.573
 6423WAT     H119811   4.799   1.249   4.518
 6423WAT     H219812   4.854   1.402   4.537
 6424WAT      O19813   4.043   0.810   4.673
 6424WAT     H119814   4.136   0.846   4.678
 6424WAT     H219815   4.037   0.725   4.725
 6425WAT      O19816   4.063   0.509   4.730
 6425WAT     H119817   4.011   0.426   4.713
 6425WAT     H219818   4.140   0.514   4.666
 6426WAT      O19819   4.862   0.380   5.402
 6426WAT     H119820   4.817   0.443   5.466
 6426WAT     H219821   4.955   0.411   5.385
 6427WAT      O19822   4.884   0.207   5.201
 6427WAT     H119823   4.884   0.271   5.278
 6427WAT     H219824   4.912   0.255   5.118
 6428WAT      O19825   3.732   1.326   3.924
 6428WAT     H119826   3.639   1.347   3.893
 6428WAT     H219827   3.742   1.227   3.937
 6429WAT      O19828   3.812   1.801   4.651
 6429WAT     H119829   3.770   1.715   4.624
 6429WAT     H219830   3.906   1.804   4.617
 6430WAT      O19831   4.228   1.568   4.634
 6430WAT     H119832   4.294   1.642   4.643
 6430WAT     H219833   4.272   1.489   4.592
 6431WAT      O19834   4.726   0.796   4.962
 6431WAT     H119835   4.767   0.764   5.048
 6431WAT     H219836   4.630   0.769   4.959
 6432WAT      O19837   3.764   0.544   4.838
 6432WAT     H119838   3.849   0.511   4.797
 6432WAT     H219839   3.777   0.559   4.936
 6433WAT      O19840   3.913   0.520   5.446
 6433WAT     H119841   3.972   0.480   5.376
 6433WAT     H219842   3.855   0.591   5.405
 6434WAT      O19843   5.093   0.950   5.384
 6434WAT     H119844   5.132   1.039   5.404
 6434WAT     H219845   5.103   0.930   5.287
 6435WAT      O19846   4.539   0.572   4.049
 6435WAT     H119847   4.546   0.483   4.003
 6435WAT     H219848   4.445   0.606   4.041
 6436WAT      O19849   5.381   0.604   4.930
 6436WAT     H119850   5.343   0.535   4.992
 6436WAT     H219851   5.463   0.568   4.886
 6437WAT      O19852   3.976   1.564   5.468
 6437WAT     H119853   3.946   1.621   5.544
 6437WAT     H219854   3.969   1.467   5.494
 6438WAT      O19855   4.395   0.464   4.993
 6438WAT     H119856   4.361   0.375   4.963
 6438WAT     H219857   4.421   0.518   4.913
 6439WAT      O19858   4.654   1.678   5.189
 6439WAT     H119859   4.630   1.660   5.094
 6439WAT     H219860   4.684   1.772   5.199
 6440WAT      O19861   4.197   0.500   3.915
 6440WAT     H119862   4.258   0.580   3.919
 6440WAT     H219863   4.102   0.531   3.922
 6441WAT      O19864   3.883   1.137   5.190
 6441WAT     H119865   3.905   1.076   5.266
 6441WAT     H219866   3.893   1.088   5.104
 6442WAT      O19867   5.071   1.059   4.958
 6442WAT     H119868   5.095   0.996   4.884
 6442WAT     H219869   4.981   1.099   4.940
 6443WAT      O19870   5.026   0.855   4.033
 6443WAT     H119871   4.940   0.824   4.075
 6443WAT     H219872   5.022   0.841   3.934
 6444WAT      O19873   5.483   1.747   4.878
 6444WAT     H119874   5.544   1.777   4.805
 6444WAT     H219875   5.445   1.658   4.856
 6445WAT      O19876   4.976   1.731   4.852
 6445WAT     H119877   5.060   1.736   4.798
 6445WAT     H219878   4.953   1.635   4.870
 6446WAT      O19879   3.807   1.258   4.746
 6446WAT     H119880   3.802   1.257   4.846
 6446WAT     H219881   3.724   1.217   4.708
 6447WAT      O19882   4.412   1.662   5.440
 6447WAT     H119883   4.356   1.743   5.449
 6447WAT     H219884   4.464   1.666   5.354
 6448WAT      O19885   5.450   0.135   4.247
 6448WAT     H119886   5.523   0.118   4.180
 6448WAT     H219887   5.419   0.048   4.285
 6449WAT      O19888   5.112   1.573   4.201
 6449WAT     H119889   5.179   1.585   4.127
 6449WAT     H219890   5.072   1.662   4.224
 6450WAT      O19891   3.854   1.794   5.575
 6450WAT     H119892   3.813   1.720   5.628
 6450WAT     H219893   3.918   1.845   5.633
 6451WAT      O19894   5.004   0.927   4.396
 6451WAT     H119895   5.064   0.846   4.398
 6451WAT     H219896   5.044   0.996   4.336
 6452WAT      O19897   4.554   1.273   5.146
 6452WAT     H119898   4.549   1.306   5.241
 6452WAT     H219899   4.468   1.292   5.100
 6453WAT      O19900   4.396   1.616   3.878
 6453WAT     H119901   4.405   1.626   3.779
 6453WAT     H219902   4.356   1.527   3.899
 6454WAT      O19903   5.374   1.720   5.118
 6454WAT     H119904   5.427   1.730   5.034
 6454WAT     H219905   5.347   1.810   5.152
 6455WAT      O19906   5.565   0.175   4.687
 6455WAT     H119907   5.604   0.090   4.651
 6455WAT     H219908   5.467   0.177   4.668
 6456WAT      O19909   3.987   0.326   4.444
 6456WAT     H119910   3.908   0.377   4.410
 6456WAT     H219911   3.978   0.311   4.542
 6457WAT      O19912   4.918   1.612   3.755
 6457WAT     H119913   4.924   1.519   3.792
 6457WAT     H219914   4.859   1.612   3.675
 6458WAT      O19915   4.546   1.002   5.096
 6458WAT     H119916   4.586   1.001   5.004
 6458WAT     H219917   4.556   1.094   5.136
 6459WAT      O19918   4.640   0.910   4.015
 6459WAT     H119919   4.703   0.948   3.947
 6459WAT     H219920   4.680   0.827   4.054
 6460WAT      O19921   5.228   1.607   3.768
 6460WAT     H119922   5.136   1.644   3.775
 6460WAT     H219923   5.266   1.627   3.678
 6461WAT      O19924   4.096   1.288   5.214
 6461WAT     H119925   4.083   1.381   5.180
 6461WAT     H219926   4.012   1.236   5.201
 6462WAT      O19927   5.338   1.292   5.013
 6462WAT     H119928   5.398   1.295   5.093
 6462WAT     H219929   5.263   1.356   5.026
 6463WAT      O19930   4.763   1.098   4.420
 6463WAT     H119931   4.693   1.051   4.474
 6463WAT     H219932   4.822   1.030   4.377
 6464WAT      O19933   4.738   0.236   4.695
 6464WAT     H119934   4.730   0.200   4.602
 6464WAT     H219935   4.736   0.160   4.760
 6465WAT      O19936   4.314   1.487   4.215
 6465WAT     H119937   4.356   1.429   4.145
 6465WAT     H219938   4.270   1.566   4.171
 6466WAT      O19939   5.433   0.385   5.105
 6466WAT     H119940   5.506   0.454   5.109
 6466WAT     H219941   5.461   0.310   5.046
 6467WAT      O19942   3.979   1.348   4.014
 6467WAT     H119943   3.883   1.349   3.987
 6467WAT     H219944   3.991   1.401   4.098
 6468WAT      O19945   3.829   1.013   5.450
 6468WAT     H119946   3.752   0.980   5.504
 6468WAT     H219947   3.914   0.983   5.492
 6469WAT      O19948   4.396   0.203   5.213
 6469WAT     H119949   4.486   0.187   5.173
 6469WAT     H219950   4.404   0.208   5.312
 6470WAT      O19951   3.799   0.345   3.757
 6470WAT     H119952   3.707   0.317   3.728
 6470WAT     H219953   3.830   0.422   3.701
 6471WAT      O19954   5.164   0.856   5.122
 6471WAT     H119955   5.107   0.908   5.059
 6471WAT     H219956   5.260   0.868   5.098
 6472WAT      O19957   3.796   0.166   4.042
 6472WAT     H119958   3.779   0.249   3.988
 6472WAT     H219959   3.886   0.129   4.020
 6473WAT      O19960   4.907   1.335   3.843
 6473WAT     H119961   4.808   1.324   3.845
 6473WAT     H219962   4.941   1.350   3.936
 6474WAT      O19963   4.337   0.842   5.155
 6474WAT     H119964   4.393   0.923   5.138
 6474WAT     H219965   4.396   0.762   5.158
 6475WAT      O19966   5.217   1.767   4.683
 6475WAT     H119967   5.250   1.831   4.614
 6475WAT     H219968   5.283   1.761   4.758
 6476WAT      O19969   4.440   0.565   5.432
 6476WAT     H119970   4.459   0.630   5.506
 6476WAT     H219971   4.500   0.485   5.441
 6477WAT      O19972   5.174   1.220   5.357
 6477WAT     H119973   5.165   1.210   5.456
 6477WAT     H219974   5.270   1.213   5.331
 6478WAT      O19975   4.114   1.741   5.284
 6478WAT     H119976   4.023   1.782   5.282
 6478WAT     H219977   4.107   1.647   5.316
 6479WAT      O19978   5.398   0.883   4.978
 6479WAT     H119979   5.371   0.794   4.941
 6479WAT     H219980   5.399   0.951   4.905
 6480WAT      O19981   4.949   0.325   4.173
 6480WAT     H119982   5.014   0.251   4.162
 6480WAT     H219983   4.969   0.375   4.257
 6481WAT      O19984   4.318   0.745   4.376
 6481WAT     H119985   4.368   0.830   4.357
 6481WAT     H219986   4.230   0.747   4.328
 6482WAT      O19987   5.501   0.342   5.366
 6482WAT     H119988   5.484   0.373   5.272
 6482WAT     H219989   5.417   0.305   5.404
 6483WAT      O19990   5.454   0.934   5.241
 6483WAT     H119991   5.492   1.025   5.256
 6483WAT     H219992   5.446   0.917   5.142
 6484WAT      O19993   4.583   1.374   3.740
 6484WAT     H119994   4.537   1.389   3.828
 6484WAT     H219995   4.627   1.459   3.710
 6485WAT      O19996   4.385   1.790   4.677
 6485WAT     H119997   4.339   1.878   4.664
 6485WAT     H219998   4.484   1.802   4.670
 6486WAT      O19999   4.583   0.956   4.585
 6486WAT     H120000   4.637   0.887   4.633
 6486WAT     H220001   4.551   1.025   4.651
 6487WAT      O20002   4.807   0.984   3.811
 6487WAT     H120003   4.784   1.037   3.729
 6487WAT     H220004   4.888   0.928   3.792
 6488WAT      O20005   5.585   1.569   4.575
 6488WAT     H120006   5.514   1.557   4.505
 6488WAT     H220007   5.586   1.490   4.635
 6489WAT      O20008   3.945   1.314   5.568
 6489WAT     H120009   3.880   1.241   5.547
 6489WAT     H220010   3.949   1.328   5.666
 6490WAT      O20011   3.803   1.240   4.377
 6490WAT     H120012   3.802   1.193   4.465
 6490WAT     H220013   3.885   1.212   4.326
 6491WAT      O20014   4.396   1.391   5.348
 6491WAT     H120015   4.318   1.341   5.386
 6491WAT     H220016   4.393   1.486   5.379
 6492WAT      O20017   5.548   0.192   4.951
 6492WAT     H120018   5.544   0.102   4.995
 6492WAT     H220019   5.551   0.181   4.852
 6493WAT      O20020   4.152   0.424   4.244
 6493WAT     H120021   4.182   0.352   4.182
 6493WAT     H220022   4.113   0.384   4.327
 6494WAT      O20023   5.429   1.487   4.828
 6494WAT     H120024   5.336   1.462   4.801
 6494WAT     H220025   5.455   1.437   4.910
 6495WAT      O20026   4.041   0.547   5.004
 6495WAT     H120027   4.079   0.488   5.076
 6495WAT     H220028   4.081   0.521   4.916
 6496WAT      O20029   4.536   1.586   4.411
 6496WAT     H120030   4.568   1.596   4.317
 6496WAT     H220031   4.457   1.524   4.413
 6497WAT      O20032   5.148   0.214   4.836
 6497WAT     H120033   5.200   0.149   4.891
 6497WAT     H220034   5.099   0.277   4.897
 6498WAT      O20035   4.725   0.034   4.878
 6498WAT     H120036   4.662  -0.038   4.847
 6498WAT     H220037   4.818  -0.002   4.878
 6499WAT      O20038   4.494   1.330   4.025
 6499WAT     H120039   4.448   1.243   4.042
 6499WAT     H220040   4.585   1.327   4.066
 6500WAT      O20041   4.342   1.567   5.008
 6500WAT     H120042   4.337   1.649   5.065
 6500WAT     H220043   4.431   1.564   4.963
 6501WAT      O20044   5.076   0.052   3.892
 6501WAT     H120045   5.111   0.011   3.808
 6501WAT     H220046   4.986   0.014   3.912
 6502WAT      O20047   5.024   0.453   4.415
 6502WAT     H120048   4.965   0.533   4.419
 6502WAT     H220049   5.039   0.418   4.508
 6503WAT      O20050   5.317   0.221   4.606
 6503WAT     H120051   5.233   0.220   4.660
 6503WAT     H220052   5.319   0.304   4.550
 6504WAT      O20053   3.763   1.077   4.024
 6504WAT     H120054   3.862   1.066   4.015
 6504WAT     H220055   3.723   0.991   4.056
 6505WAT      O20056   4.599   1.646   4.061
 6505WAT     H120057   4.522   1.611   4.007
 6505WAT     H220058   4.567   1.717   4.123
 6506WAT      O20059   3.954   0.628   5.699
 6506WAT     H120060   3.861   0.626   5.736
 6506WAT     H220061   3.955   0.589   5.607
 6507WAT      O20062   3.949   0.275   6.582
 6507WAT     H120063   3.984   0.258   6.674
 6507WAT     H220064   3.861   0.230   6.570
 6508WAT      O20065   3.743   0.368   6.233
 6508WAT     H120066   3.661   0.411   6.272
 6508WAT     H220067   3.715   0.295   6.170
 6509WAT      O20068   4.293   1.275   6.751
 6509WAT     H120069   4.200   1.268   6.714
 6509WAT     H220070   4.304   1.364   6.795
 6510WAT      O20071   5.279   1.511   6.289
 6510WAT     H120072   5.222   1.495   6.370
 6510WAT     H220073   5.220   1.521   6.209
 6511WAT      O20074   4.859   0.703   6.303
 6511WAT     H120075   4.916   0.781   6.278
 6511WAT     H220076   4.799   0.729   6.379
 6512WAT      O20077   5.479   0.607   5.817
 6512WAT     H120078   5.467   0.594   5.718
 6512WAT     H220079   5.449   0.526   5.866
 6513WAT      O20080   4.492   1.144   6.609
 6513WAT     H120081   4.414   1.161   6.669
 6513WAT     H220082   4.526   1.231   6.573
 6514WAT      O20083   4.409   1.012   6.251
 6514WAT     H120084   4.478   0.996   6.321
 6514WAT     H220085   4.336   1.069   6.289
 6515WAT      O20086   4.059   1.435   6.647
 6515WAT     H120087   3.981   1.404   6.594
 6515WAT     H220088   4.117   1.493   6.590
 6516WAT      O20089   5.327   0.447   6.323
 6516WAT     H120090   5.253   0.493   6.273
 6516WAT     H220091   5.378   0.515   6.376
 6517WAT      O20092   3.955   1.713   6.069
 6517WAT     H120093   3.989   1.790   6.123
 6517WAT     H220094   3.999   1.713   5.979
 6518WAT      O20095   3.954   1.434   6.124
 6518WAT     H120096   3.928   1.530   6.124
 6518WAT     H220097   3.883   1.380   6.169
 6519WAT      O20098   3.964   1.091   6.472
 6519WAT     H120099   3.978   1.007   6.524
 6519WAT     H220100   3.909   1.155   6.527
 6520WAT      O20101   4.344   1.786   7.025
 6520WAT     H120102   4.252   1.769   7.060
 6520WAT     H220103   4.372   1.878   7.051
 6521WAT      O20104   4.330   0.964   5.709
 6521WAT     H120105   4.337   1.048   5.655
 6521WAT     H220106   4.376   0.977   5.797
 6522WAT      O20107   3.846   0.643   6.149
 6522WAT     H120108   3.801   0.555   6.166
 6522WAT     H220109   3.845   0.697   6.233
 6523WAT      O20110   5.566   1.767   5.945
 6523WAT     H120111   5.620   1.738   6.025
 6523WAT     H220112   5.596   1.857   5.916
 6524WAT      O20113   3.751   1.596   5.703
 6524WAT     H120114   3.732   1.500   5.724
 6524WAT     H220115   3.718   1.654   5.778
 6525WAT      O20116   5.413   0.922   6.198
 6525WAT     H120117   5.508   0.893   6.206
 6525WAT     H220118   5.405   0.987   6.123
 6526WAT      O20119   5.365   1.108   6.018
 6526WAT     H120120   5.451   1.110   5.966
 6526WAT     H220121   5.379   1.155   6.106
 6527WAT      O20122   4.337   1.365   6.312
 6527WAT     H120123   4.288   1.278   6.321
 6527WAT     H220124   4.314   1.408   6.225
 6528WAT      O20125   4.533   0.004   6.088
 6528WAT     H120126   4.573   0.095   6.079
 6528WAT     H220127   4.433   0.012   6.094
 6529WAT      O20128   3.921   0.976   6.850
 6529WAT     H120129   4.010   0.931   6.836
 6529WAT     H220130   3.848   0.911   6.831
 6530WAT      O20131   5.249   0.999   5.776
 6530WAT     H120132   5.186   0.923   5.789
 6530WAT     H220133   5.297   1.017   5.862
 6531WAT      O20134   5.190   1.417   6.539
 6531WAT     H120135   5.131   1.423   6.619
 6531WAT     H220136   5.175   1.329   6.493
 6532WAT      O20137   5.391   1.714   6.158
 6532WAT     H120138   5.350   1.691   6.070
 6532WAT     H220139   5.373   1.640   6.223
 6533WAT      O20140   4.322   0.729   5.856
 6533WAT     H120141   4.346   0.798   5.788
 6533WAT     H220142   4.244   0.762   5.910
 6534WAT      O20143   5.005   0.345   6.530
 6534WAT     H120144   4.919   0.295   6.517
 6534WAT     H220145   5.067   0.291   6.586
 6535WAT      O20146   5.300   1.662   5.893
 6535WAT     H120147   5.389   1.708   5.896
 6535WAT     H220148   5.279   1.638   5.798
 6536WAT      O20149   4.531   0.605   7.051
 6536WAT     H120150   4.484   0.602   7.140
 6536WAT     H220151   4.480   0.550   6.985
 6537WAT      O20152   4.715   0.410   6.828
 6537WAT     H120153   4.638   0.444   6.882
 6537WAT     H220154   4.681   0.359   6.749
 6538WAT      O20155   4.765   0.701   6.015
 6538WAT     H120156   4.791   0.697   6.111
 6538WAT     H220157   4.680   0.650   6.001
 6539WAT      O20158   3.800   0.811   6.375
 6539WAT     H120159   3.899   0.799   6.384
 6539WAT     H220160   3.776   0.906   6.396
 6540WAT      O20161   3.854   1.821   7.157
 6540WAT     H120162   3.844   1.806   7.256
 6540WAT     H220163   3.768   1.857   7.121
 6541WAT      O20164   4.589   0.348   5.781
 6541WAT     H120165   4.648   0.411   5.732
 6541WAT     H220166   4.608   0.254   5.752
 6542WAT      O20167   5.086   1.144   6.131
 6542WAT     H120168   5.169   1.115   6.083
 6542WAT     H220169   5.037   1.211   6.075
 6543WAT      O20170   4.274   0.196   6.471
 6543WAT     H120171   4.269   0.191   6.571
 6543WAT     H220172   4.276   0.292   6.442
 6544WAT      O20173   4.732   1.456   6.063
 6544WAT     H120174   4.686   1.528   6.011
 6544WAT     H220175   4.728   1.476   6.161
 6545WAT      O20176   4.075   1.801   6.439
 6545WAT     H120177   4.125   1.715   6.445
 6545WAT     H220178   4.140   1.878   6.436
 6546WAT      O20179   5.519   1.066   6.459
 6546WAT     H120180   5.457   1.051   6.383
 6546WAT     H220181   5.467   1.077   6.544
 6547WAT      O20182   4.045   0.943   5.828
 6547WAT     H120183   4.127   0.982   5.786
 6547WAT     H220184   4.018   0.861   5.779
 6548WAT      O20185   5.182   0.735   6.314
 6548WAT     H120186   5.177   0.670   6.389
 6548WAT     H220187   5.262   0.794   6.327
 6549WAT      O20188   4.835   1.776   5.823
 6549WAT     H120189   4.775   1.714   5.873
 6549WAT     H220190   4.866   1.732   5.738
 6550WAT      O20191   5.356   1.377   5.667
 6550WAT     H120192   5.324   1.471   5.657
 6550WAT     H220193   5.280   1.314   5.655
 6551WAT      O20194   4.188   1.743   5.909
 6551WAT     H120195   4.221   1.782   5.995
 6551WAT     H220196   4.264   1.736   5.844
 6552WAT      O20197   5.124   0.107   6.012
 6552WAT     H120198   5.100   0.070   5.922
 6552WAT     H220199   5.223   0.123   6.016
 6553WAT      O20200   3.973   1.785   6.827
 6553WAT     H120201   4.030   1.720   6.877
 6553WAT     H220202   3.957   1.752   6.734
 6554WAT      O20203   4.664   1.698   6.490
 6554WAT     H120204   4.744   1.641   6.511
 6554WAT     H220205   4.615   1.658   6.413
 6555WAT      O20206   4.106   0.700   6.066
 6555WAT     H120207   4.151   0.610   6.063
 6555WAT     H220208   4.012   0.689   6.099
 6556WAT      O20209   4.338   0.122   5.703
 6556WAT     H120210   4.436   0.100   5.710
 6556WAT     H220211   4.307   0.105   5.610
 6557WAT      O20212   4.612   1.514   6.781
 6557WAT     H120213   4.589   1.489   6.687
 6557WAT     H220214   4.673   1.445   6.820
 6558WAT      O20215   4.527   1.402   6.510
 6558WAT     H120216   4.617   1.416   6.468
 6558WAT     H220217   4.456   1.404   6.439
 6559WAT      O20218   4.646   0.503   6.485
 6559WAT     H120219   4.621   0.494   6.389
 6559WAT     H220220   4.694   0.421   6.516
 6560WAT      O20221   4.263   0.064   6.098
 6560WAT     H120222   4.182   0.065   6.156
 6560WAT     H220223   4.266   0.147   6.043
 6561WAT      O20224   5.158   1.188   5.627
 6561WAT     H120225   5.190   1.112   5.684
 6561WAT     H220226   5.066   1.215   5.657
 6562WAT      O20227   4.021   0.035   5.757
 6562WAT     H120228   4.070   0.119   5.736
 6562WAT     H220229   4.083  -0.030   5.802
 6563WAT      O20230   4.659   0.236   6.066
 6563WAT     H120231   4.611   0.277   5.988
 6563WAT     H220232   4.758   0.234   6.047
 6564WAT      O20233   4.951   1.570   6.379
 6564WAT     H120234   4.972   1.644   6.314
 6564WAT     H220235   5.019   1.570   6.452
 6565WAT      O20236   4.183   1.152   6.327
 6565WAT     H120237   4.112   1.125   6.392
 6565WAT     H220238   4.157   1.124   6.234
 6566WAT      O20239   4.995   1.797   6.177
 6566WAT     H120240   5.039   1.861   6.113
 6566WAT     H220241   4.945   1.849   6.247
 6567WAT      O20242   4.756   0.549   5.602
 6567WAT     H120243   4.715   0.631   5.563
 6567WAT     H220244   4.820   0.575   5.675
 6568WAT      O20245   4.285   0.222   6.733
 6568WAT     H120246   4.323   0.138   6.770
 6568WAT     H220247   4.197   0.241   6.777
 6569WAT      O20248   4.590   0.454   6.228
 6569WAT     H120249   4.558   0.526   6.166
 6569WAT     H220250   4.614   0.373   6.175
 6570WAT      O20251   4.741   0.039   6.339
 6570WAT     H120252   4.669   0.044   6.270
 6570WAT     H220253   4.717  -0.030   6.408
 6571WAT      O20254   5.153   1.173   6.453
 6571WAT     H120255   5.098   1.089   6.446
 6571WAT     H220256   5.179   1.202   6.361
 6572WAT      O20257   5.190   0.590   6.578
 6572WAT     H120258   5.160   0.495   6.585
 6572WAT     H220259   5.263   0.606   6.644
 6573WAT      O20260   5.581   0.833   5.963
 6573WAT     H120261   5.623   0.769   6.027
 6573WAT     H220262   5.543   0.782   5.885
 6574WAT      O20263   4.212   1.385   5.760
 6574WAT     H120264   4.125   1.370   5.807
 6574WAT     H220265   4.195   1.411   5.665
 6575WAT      O20266   5.388   1.280   6.243
 6575WAT     H120267   5.487   1.288   6.257
 6575WAT     H220268   5.343   1.364   6.274
 6576WAT      O20269   5.114   0.575   5.664
 6576WAT     H120270   5.060   0.554   5.745
 6576WAT     H220271   5.205   0.534   5.673
 6577WAT      O20272   4.251   0.256   5.914
 6577WAT     H120273   4.278   0.197   5.839
 6577WAT     H220274   4.251   0.351   5.883
 6578WAT      O20275   5.478   1.223   7.174
 6578WAT     H120276   5.569   1.184   7.161
 6578WAT     H220277   5.486   1.319   7.198
 6579WAT      O20278   4.835   1.195   6.686
 6579WAT     H120279   4.795   1.239   6.767
 6579WAT     H220280   4.794   1.232   6.603
 6580WAT      O20281   5.362   1.099   6.665
 6580WAT     H120282   5.367   1.180   6.724
 6580WAT     H220283   5.276   1.101   6.614
 6581WAT      O20284   4.429   1.050   5.954
 6581WAT     H120285   4.415   1.057   6.053
 6581WAT     H220286   4.513   0.999   5.936
 6582WAT      O20287   4.134   0.813   6.837
 6582WAT     H120288   4.220   0.825   6.887
 6582WAT     H220289   4.092   0.726   6.864
 6583WAT      O20290   4.998   0.386   6.848
 6583WAT     H120291   5.019   0.460   6.912
 6583WAT     H220292   4.909   0.403   6.805
 6584WAT      O20293   3.788   1.564   6.917
 6584WAT     H120294   3.742   1.646   6.883
 6584WAT     H220295   3.886   1.583   6.926
 6585WAT      O20296   4.091   1.100   6.087
 6585WAT     H120297   4.084   1.183   6.031
 6585WAT     H220298   4.095   1.020   6.027
 6586WAT      O20299   4.290   0.537   6.451
 6586WAT     H120300   4.302   0.603   6.377
 6586WAT     H220301   4.336   0.571   6.534
 6587WAT      O20302   4.976   1.348   5.974
 6587WAT     H120303   5.026   1.425   6.014
 6587WAT     H220304   4.881   1.350   6.006
 6588WAT      O20305   4.996   1.445   6.728
 6588WAT     H120306   5.043   1.458   6.815
 6588WAT     H220307   4.930   1.371   6.737
 6589WAT      O20308   5.306   0.639   6.058
 6589WAT     H120309   5.275   0.700   6.131
 6589WAT     H220310   5.356   0.691   5.989
 6590WAT      O20311   4.078   1.510   6.915
 6590WAT     H120312   4.057   1.466   6.828
 6590WAT     H220313   4.175   1.536   6.918
 6591WAT      O20314   4.297   0.870   6.615
 6591WAT     H120315   4.341   0.959   6.606
 6591WAT     H220316   4.234   0.870   6.692
 6592WAT      O20317   5.084   0.862   6.631
 6592WAT     H120318   5.009   0.862   6.565
 6592WAT     H220319   5.121   0.770   6.640
 6593WAT      O20320   4.933   0.525   5.861
 6593WAT     H120321   4.946   0.441   5.915
 6593WAT     H220322   4.904   0.599   5.921
 6594WAT      O20323   4.031   0.213   6.817
 6594WAT     H120324   4.008   0.250   6.907
 6594WAT     H220325   4.001   0.118   6.811
 6595WAT      O20326   3.761   1.310   6.868
 6595WAT     H120327   3.814   1.261   6.936
 6595WAT     H220328   3.783   1.408   6.873
 6596WAT      O20329   4.456   0.634   6.650
 6596WAT     H120330   4.515   0.608   6.574
 6596WAT     H220331   4.428   0.730   6.639
 6597WAT      O20332   4.031   0.063   6.204
 6597WAT     H120333   4.020   0.157   6.237
 6597WAT     H220334   4.026   0.000   6.281
 6598WAT      O20335   5.346   0.367   5.960
 6598WAT     H120336   5.348   0.291   6.024
 6598WAT     H220337   5.298   0.444   6.000
 6599WAT      O20338   4.747   0.766   6.552
 6599WAT     H120339   4.762   0.787   6.648
 6599WAT     H220340   4.717   0.671   6.543
 6600WAT      O20341   5.264   0.274   5.711
 6600WAT     H120342   5.203   0.199   5.734
 6600WAT     H220343   5.286   0.326   5.794
 6601WAT      O20344   5.027   0.838   5.628
 6601WAT     H120345   5.061   0.745   5.643
 6601WAT     H220346   5.045   0.865   5.533
 6602WAT      O20347   4.792   1.333   6.435
 6602WAT     H120348   4.799   1.249   6.380
 6602WAT     H220349   4.854   1.402   6.399
 6603WAT      O20350   4.043   0.810   6.535
 6603WAT     H120351   4.136   0.846   6.540
 6603WAT     H220352   4.037   0.725   6.587
 6604WAT      O20353   4.063   0.509   6.592
 6604WAT     H120354   4.011   0.426   6.575
 6604WAT     H220355   4.140   0.514   6.528
 6605WAT      O20356   4.884   0.207   7.063
 6605WAT     H120357   4.884   0.271   7.140
 6605WAT     H220358   4.912   0.255   6.980
 6606WAT      O20359   3.732   1.326   5.786
 6606WAT     H120360   3.639   1.347   5.755
 6606WAT     H220361   3.742   1.227   5.799
 6607WAT      O20362   3.812   1.801   6.513
 6607WAT     H120363   3.770   1.715   6.486
 6607WAT     H220364   3.906   1.804   6.479
 6608WAT      O20365   4.228   1.568   6.496
 6608WAT     H120366   4.294   1.642   6.505
 6608WAT     H220367   4.272   1.489   6.454
 6609WAT      O20368   4.726   0.796   6.824
 6609WAT     H120369   4.767   0.764   6.910
 6609WAT     H220370   4.630   0.769   6.821
 6610WAT      O20371   3.764   0.544   6.700
 6610WAT     H120372   3.849   0.511   6.659
 6610WAT     H220373   3.777   0.559   6.798
 6611WAT      O20374   4.539   0.572   5.911
 6611WAT     H120375   4.546   0.483   5.865
 6611WAT     H220376   4.445   0.606   5.903
 6612WAT      O20377   5.381   0.604   6.792
 6612WAT     H120378   5.343   0.535   6.854
 6612WAT     H220379   5.463   0.568   6.748
 6613WAT      O20380   4.395   0.464   6.855
 6613WAT     H120381   4.361   0.375   6.825
 6613WAT     H220382   4.421   0.518   6.775
 6614WAT      O20383   4.654   1.678   7.051
 6614WAT     H120384   4.630   1.660   6.956
 6614WAT     H220385   4.684   1.772   7.061
 6615WAT      O20386   4.197   0.500   5.777
 6615WAT     H120387   4.258   0.580   5.781
 6615WAT     H220388   4.102   0.531   5.784
 6616WAT      O20389   3.883   1.137   7.052
 6616WAT     H120390   3.905   1.076   7.128
 6616WAT     H220391   3.893   1.088   6.966
 6617WAT      O20392   5.071   1.059   6.820
 6617WAT     H120393   5.095   0.996   6.746
 6617WAT     H220394   4.981   1.099   6.802
 6618WAT      O20395   5.026   0.855   5.895
 6618WAT     H120396   4.940   0.824   5.937
 6618WAT     H220397   5.022   0.841   5.796
 6619WAT      O20398   5.483   1.747   6.740
 6619WAT     H120399   5.544   1.777   6.667
 6619WAT     H220400   5.445   1.658   6.718
 6620WAT      O20401   4.976   1.731   6.714
 6620WAT     H120402   5.060   1.736   6.660
 6620WAT     H220403   4.953   1.635   6.732
 6621WAT      O20404   3.807   1.258   6.608
 6621WAT     H120405   3.802   1.257   6.708
 6621WAT     H220406   3.724   1.217   6.570
 6622WAT      O20407   5.450   0.135   6.109
 6622WAT     H120408   5.523   0.118   6.042
 6622WAT     H220409   5.419   0.048   6.147
 6623WAT      O20410   5.112   1.573   6.063
 6623WAT     H120411   5.179   1.585   5.989
 6623WAT     H220412   5.072   1.662   6.086
 6624WAT      O20413   5.004   0.927   6.258
 6624WAT     H120414   5.064   0.846   6.260
 6624WAT     H220415   5.044   0.996   6.198
 6625WAT      O20416   4.396   1.616   5.740
 6625WAT     H120417   4.405   1.626   5.641
 6625WAT     H220418   4.356   1.527   5.761
 6626WAT      O20419   5.565   0.175   6.549
 6626WAT     H120420   5.604   0.090   6.513
 6626WAT     H220421   5.467   0.177   6.530
 6627WAT      O20422   3.987   0.326   6.306
 6627WAT     H120423   3.908   0.377   6.272
 6627WAT     H220424   3.978   0.311   6.404
 6628WAT      O20425   4.918   1.612   5.617
 6628WAT     H120426   4.924   1.519   5.654
 6628WAT     H220427   4.859   1.612   5.537
 6629WAT      O20428   4.546   1.002   6.958
 6629WAT     H120429   4.586   1.001   6.866
 6629WAT     H220430   4.556   1.094   6.998
 6630WAT      O20431   4.640   0.910   5.877
 6630WAT     H120432   4.703   0.948   5.809
 6630WAT     H220433   4.680   0.827   5.916
 6631WAT      O20434   5.228   1.607   5.630
 6631WAT     H120435   5.136   1.644   5.637
 6631WAT     H220436   5.266   1.627   5.540
 6632WAT      O20437   5.338   1.292   6.875
 6632WAT     H120438   5.398   1.295   6.955
 6632WAT     H220439   5.263   1.356   6.888
 6633WAT      O20440   4.763   1.098   6.282
 6633WAT     H120441   4.693   1.051   6.336
 6633WAT     H220442   4.822   1.030   6.239
 6634WAT      O20443   4.738   0.236   6.557
 6634WAT     H120444   4.730   0.200   6.464
 6634WAT     H220445   4.736   0.160   6.622
 6635WAT      O20446   4.314   1.487   6.077
 6635WAT     H120447   4.356   1.429   6.007
 6635WAT     H220448   4.270   1.566   6.033
 6636WAT      O20449   5.433   0.385   6.967
 6636WAT     H120450   5.506   0.454   6.971
 6636WAT     H220451   5.461   0.310   6.908
 6637WAT      O20452   3.979   1.348   5.876
 6637WAT     H120453   3.883   1.349   5.849
 6637WAT     H220454   3.991   1.401   5.960
 6638WAT      O20455   3.799   0.345   5.619
 6638WAT     H120456   3.707   0.317   5.590
 6638WAT     H220457   3.830   0.422   5.563
 6639WAT      O20458   3.796   0.166   5.904
 6639WAT     H120459   3.779   0.249   5.850
 6639WAT     H220460   3.886   0.129   5.882
 6640WAT      O20461   4.907   1.335   5.705
 6640WAT     H120462   4.808   1.324   5.707
 6640WAT     H220463   4.941   1.350   5.798
 6641WAT      O20464   5.217   1.767   6.545
 6641WAT     H120465   5.250   1.831   6.476
 6641WAT     H220466   5.283   1.761   6.620
 6642WAT      O20467   5.174   1.220   7.219
 6642WAT     H120468   5.165   1.210   7.318
 6642WAT     H220469   5.270   1.213   7.193
 6643WAT      O20470   4.114   1.741   7.146
 6643WAT     H120471   4.023   1.782   7.144
 6643WAT     H220472   4.107   1.647   7.178
 6644WAT      O20473   5.398   0.883   6.840
 6644WAT     H120474   5.371   0.794   6.803
 6644WAT     H220475   5.399   0.951   6.767
 6645WAT      O20476   4.949   0.325   6.035
 6645WAT     H120477   5.014   0.251   6.024
 6645WAT     H220478   4.969   0.375   6.119
 6646WAT      O20479   4.318   0.745   6.238
 6646WAT     H120480   4.368   0.830   6.219
 6646WAT     H220481   4.230   0.747   6.190
 6647WAT      O20482   5.454   0.934   7.103
 6647WAT     H120483   5.492   1.025   7.118
 6647WAT     H220484   5.446   0.917   7.004
 6648WAT      O20485   4.583   1.374   5.602
 6648WAT     H120486   4.537   1.389   5.690
 6648WAT     H220487   4.627   1.459   5.572
 6649WAT      O20488   4.385   1.790   6.539
 6649WAT     H120489   4.339   1.878   6.526
 6649WAT     H220490   4.484   1.802   6.532
 6650WAT      O20491   4.583   0.956   6.447
 6650WAT     H120492   4.637   0.887   6.495
 6650WAT     H220493   4.551   1.025   6.513
 6651WAT      O20494   4.807   0.984   5.673
 6651WAT     H120495   4.784   1.037   5.591
 6651WAT     H220496   4.888   0.928   5.654
 6652WAT      O20497   5.585   1.569   6.437
 6652WAT     H120498   5.514   1.557   6.367
 6652WAT     H220499   5.586   1.490   6.497
 6653WAT      O20500   3.803   1.240   6.239
 6653WAT     H120501   3.802   1.193   6.327
 6653WAT     H220502   3.885   1.212   6.188
 6654WAT      O20503   5.548   0.192   6.813
 6654WAT     H120504   5.544   0.102   6.857
 6654WAT     H220505   5.551   0.181   6.714
 6655WAT      O20506   4.152   0.424   6.106
 6655WAT     H120507   4.182   0.352   6.044
 6655WAT     H220508   4.113   0.384   6.189
 6656WAT      O20509   5.429   1.487   6.690
 6656WAT     H120510   5.336   1.462   6.663
 6656WAT     H220511   5.455   1.437   6.772
 6657WAT      O20512   4.041   0.547   6.866
 6657WAT     H120513   4.079   0.488   6.938
 6657WAT     H220514   4.081   0.521   6.778
 6658WAT      O20515   4.536   1.586   6.273
 6658WAT     H120516   4.568   1.596   6.179
 6658WAT     H220517   4.457   1.524   6.275
 6659WAT      O20518   5.148   0.214   6.698
 6659WAT     H120519   5.200   0.149   6.753
 6659WAT     H220520   5.099   0.277   6.759
 6660WAT      O20521   4.725   0.034   6.740
 6660WAT     H120522   4.662  -0.038   6.709
 6660WAT     H220523   4.818  -0.002   6.740
 6661WAT      O20524   4.494   1.330   5.887
 6661WAT     H120525   4.448   1.243   5.904
 6661WAT     H220526   4.585   1.327   5.928
 6662WAT      O20527   4.342   1.567   6.870
 6662WAT     H120528   4.337   1.649   6.927
 6662WAT     H220529   4.431   1.564   6.825
 6663WAT      O20530   5.076   0.052   5.754
 6663WAT     H120531   5.111   0.011   5.670
 6663WAT     H220532   4.986   0.014   5.774
 6664WAT      O20533   5.024   0.453   6.277
 6664WAT     H120534   4.965   0.533   6.281
 6664WAT     H220535   5.039   0.418   6.370
 6665WAT      O20536   5.317   0.221   6.468
 6665WAT     H120537   5.233   0.220   6.522
 6665WAT     H220538   5.319   0.304   6.412
 6666WAT      O20539   3.763   1.077   5.886
 6666WAT     H120540   3.862   1.066   5.877
 6666WAT     H220541   3.723   0.991   5.918
 6667WAT      O20542   4.599   1.646   5.923
 6667WAT     H120543   4.522   1.611   5.869
 6667WAT     H220544   4.567   1.717   5.985
 6668WAT      O20545   3.954   2.490   0.113
 6668WAT     H120546   3.861   2.488   0.150
 6668WAT     H220547   3.955   2.451   0.021
 6669WAT      O20548   3.949   2.137   0.996
 6669WAT     H120549   3.984   2.120   1.088
 6669WAT     H220550   3.861   2.092   0.984
 6670WAT      O20551   3.743   2.230   0.647
 6670WAT     H120552   3.661   2.273   0.686
 6670WAT     H220553   3.715   2.157   0.584
 6671WAT      O20554   4.293   3.137   1.165
 6671WAT     H120555   4.200   3.130   1.128
 6671WAT     H220556   4.304   3.226   1.209
 6672WAT      O20557   5.279   3.373   0.703
 6672WAT     H120558   5.222   3.357   0.784
 6672WAT     H220559   5.220   3.383   0.623
 6673WAT      O20560   4.859   2.565   0.717
 6673WAT     H120561   4.916   2.643   0.692
 6673WAT     H220562   4.799   2.591   0.793
 6674WAT      O20563   5.479   2.469   0.231
 6674WAT     H120564   5.467   2.456   0.132
 6674WAT     H220565   5.449   2.388   0.280
 6675WAT      O20566   4.492   3.006   1.023
 6675WAT     H120567   4.414   3.023   1.083
 6675WAT     H220568   4.526   3.093   0.987
 6676WAT      O20569   4.574   2.660   1.823
 6676WAT     H120570   4.570   2.736   1.888
 6676WAT     H220571   4.596   2.696   1.732
 6677WAT      O20572   4.409   2.874   0.665
 6677WAT     H120573   4.478   2.858   0.735
 6677WAT     H220574   4.336   2.931   0.703
 6678WAT      O20575   4.410   3.023   1.803
 6678WAT     H120576   4.470   3.102   1.817
 6678WAT     H220577   4.324   3.054   1.762
 6679WAT      O20578   4.059   3.297   1.061
 6679WAT     H120579   3.981   3.266   1.008
 6679WAT     H220580   4.117   3.355   1.004
 6680WAT      O20581   5.184   3.367   1.339
 6680WAT     H120582   5.208   3.461   1.365
 6680WAT     H220583   5.168   3.313   1.421
 6681WAT      O20584   4.162   2.254   1.499
 6681WAT     H120585   4.244   2.198   1.508
 6681WAT     H220586   4.081   2.196   1.503
 6682WAT      O20587   5.327   2.309   0.737
 6682WAT     H120588   5.253   2.355   0.687
 6682WAT     H220589   5.378   2.377   0.790
 6683WAT      O20590   3.955   3.575   0.483
 6683WAT     H120591   3.989   3.652   0.537
 6683WAT     H220592   3.999   3.575   0.393
 6684WAT      O20593   4.851   3.203   1.690
 6684WAT     H120594   4.898   3.203   1.778
 6684WAT     H220595   4.803   3.116   1.679
 6685WAT      O20596   3.954   3.296   0.538
 6685WAT     H120597   3.928   3.392   0.538
 6685WAT     H220598   3.883   3.242   0.583
 6686WAT      O20599   3.964   2.953   0.886
 6686WAT     H120600   3.978   2.869   0.938
 6686WAT     H220601   3.909   3.017   0.941
 6687WAT      O20602   4.344   3.648   1.439
 6687WAT     H120603   4.252   3.631   1.474
 6687WAT     H220604   4.372   3.740   1.465
 6688WAT      O20605   4.330   2.826   0.123
 6688WAT     H120606   4.337   2.910   0.069
 6688WAT     H220607   4.376   2.839   0.211
 6689WAT      O20608   5.318   1.976   1.480
 6689WAT     H120609   5.300   2.043   1.408
 6689WAT     H220610   5.315   2.022   1.569
 6690WAT      O20611   3.846   2.505   0.563
 6690WAT     H120612   3.801   2.417   0.580
 6690WAT     H220613   3.845   2.559   0.647
 6691WAT      O20614   5.566   3.629   0.359
 6691WAT     H120615   5.620   3.600   0.439
 6691WAT     H220616   5.596   3.719   0.330
 6692WAT      O20617   3.751   3.458   0.117
 6692WAT     H120618   3.732   3.362   0.138
 6692WAT     H220619   3.718   3.516   0.192
 6693WAT      O20620   5.413   2.784   0.612
 6693WAT     H120621   5.508   2.755   0.620
 6693WAT     H220622   5.405   2.849   0.537
 6694WAT      O20623   5.365   2.970   0.432
 6694WAT     H120624   5.451   2.972   0.380
 6694WAT     H220625   5.379   3.017   0.520
 6695WAT      O20626   3.837   2.599   1.597
 6695WAT     H120627   3.925   2.586   1.642
 6695WAT     H220628   3.824   2.696   1.575
 6696WAT      O20629   4.337   3.227   0.726
 6696WAT     H120630   4.288   3.140   0.735
 6696WAT     H220631   4.314   3.270   0.639
 6697WAT      O20632   5.017   3.090   1.423
 6697WAT     H120633   5.054   3.017   1.365
 6697WAT     H220634   5.069   3.095   1.508
 6698WAT      O20635   4.533   1.866   0.502
 6698WAT     H120636   4.573   1.957   0.493
 6698WAT     H220637   4.433   1.874   0.508
 6699WAT      O20638   3.921   2.838   1.264
 6699WAT     H120639   4.010   2.793   1.250
 6699WAT     H220640   3.848   2.773   1.245
 6700WAT      O20641   5.249   2.861   0.190
 6700WAT     H120642   5.186   2.785   0.203
 6700WAT     H220643   5.297   2.879   0.276
 6701WAT      O20644   4.911   3.654   1.616
 6701WAT     H120645   4.935   3.714   1.540
 6701WAT     H220646   4.918   3.559   1.586
 6702WAT      O20647   4.041   2.113   1.801
 6702WAT     H120648   4.112   2.184   1.807
 6702WAT     H220649   3.953   2.152   1.829
 6703WAT      O20650   5.190   3.279   0.953
 6703WAT     H120651   5.131   3.285   1.033
 6703WAT     H220652   5.175   3.191   0.907
 6704WAT      O20653   5.391   3.576   0.572
 6704WAT     H120654   5.350   3.553   0.484
 6704WAT     H220655   5.373   3.502   0.637
 6705WAT      O20656   4.322   2.591   0.270
 6705WAT     H120657   4.346   2.660   0.202
 6705WAT     H220658   4.244   2.624   0.324
 6706WAT      O20659   5.005   2.207   0.944
 6706WAT     H120660   4.919   2.157   0.931
 6706WAT     H220661   5.067   2.153   1.000
 6707WAT      O20662   5.300   3.524   0.307
 6707WAT     H120663   5.389   3.570   0.310
 6707WAT     H220664   5.279   3.500   0.212
 6708WAT      O20665   4.531   2.467   1.465
 6708WAT     H120666   4.484   2.464   1.554
 6708WAT     H220667   4.480   2.412   1.399
 6709WAT      O20668   5.118   2.331   1.674
 6709WAT     H120669   5.098   2.374   1.762
 6709WAT     H220670   5.196   2.269   1.683
 6710WAT      O20671   4.697   2.752   1.572
 6710WAT     H120672   4.743   2.668   1.543
 6710WAT     H220673   4.641   2.786   1.497
 6711WAT      O20674   4.715   2.272   1.242
 6711WAT     H120675   4.638   2.306   1.296
 6711WAT     H220676   4.681   2.221   1.163
 6712WAT      O20677   4.765   2.563   0.429
 6712WAT     H120678   4.791   2.559   0.525
 6712WAT     H220679   4.680   2.512   0.415
 6713WAT      O20680   3.800   2.673   0.789
 6713WAT     H120681   3.899   2.661   0.798
 6713WAT     H220682   3.776   2.768   0.810
 6714WAT      O20683   3.854   3.683   1.571
 6714WAT     H120684   3.844   3.668   1.670
 6714WAT     H220685   3.768   3.719   1.535
 6715WAT      O20686   4.589   2.210   0.195
 6715WAT     H120687   4.648   2.273   0.146
 6715WAT     H220688   4.608   2.116   0.166
 6716WAT      O20689   5.443   2.447   1.831
 6716WAT     H120690   5.417   2.536   1.795
 6716WAT     H220691   5.441   2.379   1.758
 6717WAT      O20692   5.086   3.006   0.545
 6717WAT     H120693   5.169   2.977   0.497
 6717WAT     H220694   5.037   3.073   0.489
 6718WAT      O20695   4.274   2.058   0.885
 6718WAT     H120696   4.269   2.053   0.985
 6718WAT     H220697   4.276   2.154   0.856
 6719WAT      O20698   4.732   3.318   0.477
 6719WAT     H120699   4.686   3.390   0.425
 6719WAT     H220700   4.728   3.338   0.575
 6720WAT      O20701   4.075   3.663   0.853
 6720WAT     H120702   4.125   3.577   0.859
 6720WAT     H220703   4.140   3.740   0.850
 6721WAT      O20704   5.519   2.928   0.873
 6721WAT     H120705   5.457   2.913   0.797
 6721WAT     H220706   5.467   2.939   0.958
 6722WAT      O20707   4.951   3.412   1.506
 6722WAT     H120708   4.957   3.335   1.570
 6722WAT     H220709   4.899   3.386   1.426
 6723WAT      O20710   4.045   2.805   0.242
 6723WAT     H120711   4.127   2.844   0.200
 6723WAT     H220712   4.018   2.723   0.193
 6724WAT      O20713   5.182   2.597   0.728
 6724WAT     H120714   5.177   2.532   0.803
 6724WAT     H220715   5.262   2.656   0.741
 6725WAT      O20716   4.185   3.128   1.727
 6725WAT     H120717   4.135   3.129   1.641
 6725WAT     H220718   4.122   3.110   1.803
 6726WAT      O20719   4.835   3.638   0.237
 6726WAT     H120720   4.775   3.576   0.287
 6726WAT     H220721   4.866   3.594   0.152
 6727WAT      O20722   3.926   2.147   1.498
 6727WAT     H120723   3.846   2.207   1.485
 6727WAT     H220724   3.916   2.098   1.584
 6728WAT      O20725   5.356   3.239   0.081
 6728WAT     H120726   5.324   3.333   0.071
 6728WAT     H220727   5.280   3.176   0.069
 6729WAT      O20728   4.188   3.605   0.323
 6729WAT     H120729   4.221   3.644   0.409
 6729WAT     H220730   4.264   3.598   0.258
 6730WAT      O20731   3.973   3.647   1.241
 6730WAT     H120732   4.030   3.582   1.291
 6730WAT     H220733   3.957   3.614   1.148
 6731WAT      O20734   4.664   3.560   0.904
 6731WAT     H120735   4.744   3.503   0.925
 6731WAT     H220736   4.615   3.520   0.827
 6732WAT      O20737   4.106   2.562   0.480
 6732WAT     H120738   4.151   2.472   0.477
 6732WAT     H220739   4.012   2.551   0.513
 6733WAT      O20740   5.271   2.084   1.729
 6733WAT     H120741   5.266   2.121   1.821
 6733WAT     H220742   5.199   2.015   1.717
 6734WAT      O20743   4.505   2.126   1.749
 6734WAT     H120744   4.572   2.065   1.792
 6734WAT     H220745   4.432   2.145   1.814
 6735WAT      O20746   4.612   3.376   1.195
 6735WAT     H120747   4.589   3.351   1.101
 6735WAT     H220748   4.673   3.307   1.234
 6736WAT      O20749   5.075   2.452   1.433
 6736WAT     H120750   5.103   2.409   1.518
 6736WAT     H220751   5.100   2.548   1.434
 6737WAT      O20752   4.527   3.264   0.924
 6737WAT     H120753   4.617   3.278   0.882
 6737WAT     H220754   4.456   3.266   0.853
 6738WAT      O20755   4.646   2.365   0.899
 6738WAT     H120756   4.621   2.356   0.803
 6738WAT     H220757   4.694   2.283   0.930
 6739WAT      O20758   4.263   1.926   0.512
 6739WAT     H120759   4.182   1.927   0.570
 6739WAT     H220760   4.266   2.009   0.457
 6740WAT      O20761   5.158   3.050   0.041
 6740WAT     H120762   5.190   2.974   0.098
 6740WAT     H220763   5.066   3.077   0.071
 6741WAT      O20764   4.659   2.098   0.480
 6741WAT     H120765   4.611   2.139   0.402
 6741WAT     H220766   4.758   2.096   0.461
 6742WAT      O20767   4.800   2.545   1.464
 6742WAT     H120768   4.720   2.484   1.467
 6742WAT     H220769   4.881   2.492   1.440
 6743WAT      O20770   4.951   3.432   0.793
 6743WAT     H120771   4.972   3.506   0.728
 6743WAT     H220772   5.019   3.432   0.866
 6744WAT      O20773   4.183   3.014   0.741
 6744WAT     H120774   4.112   2.987   0.806
 6744WAT     H220775   4.157   2.986   0.648
 6745WAT      O20776   4.995   3.659   0.591
 6745WAT     H120777   5.039   3.723   0.527
 6745WAT     H220778   4.945   3.711   0.661
 6746WAT      O20779   4.756   2.411   0.016
 6746WAT     H120780   4.715   2.493  -0.023
 6746WAT     H220781   4.820   2.437   0.089
 6747WAT      O20782   3.802   2.418   1.386
 6747WAT     H120783   3.894   2.417   1.345
 6747WAT     H220784   3.796   2.492   1.453
 6748WAT      O20785   4.285   2.084   1.147
 6748WAT     H120786   4.323   2.000   1.184
 6748WAT     H220787   4.197   2.103   1.191
 6749WAT      O20788   4.590   2.316   0.642
 6749WAT     H120789   4.558   2.388   0.580
 6749WAT     H220790   4.614   2.235   0.589
 6750WAT      O20791   4.741   1.901   0.753
 6750WAT     H120792   4.669   1.906   0.684
 6750WAT     H220793   4.717   1.832   0.822
 6751WAT      O20794   5.153   3.035   0.867
 6751WAT     H120795   5.098   2.951   0.860
 6751WAT     H220796   5.179   3.064   0.775
 6752WAT      O20797   5.190   2.452   0.992
 6752WAT     H120798   5.160   2.357   0.999
 6752WAT     H220799   5.263   2.468   1.058
 6753WAT      O20800   5.581   2.695   0.377
 6753WAT     H120801   5.623   2.631   0.441
 6753WAT     H220802   5.543   2.644   0.299
 6754WAT      O20803   4.212   3.247   0.174
 6754WAT     H120804   4.125   3.232   0.221
 6754WAT     H220805   4.195   3.273   0.079
 6755WAT      O20806   5.388   3.142   0.657
 6755WAT     H120807   5.487   3.150   0.671
 6755WAT     H220808   5.343   3.226   0.688
 6756WAT      O20809   5.114   2.437   0.078
 6756WAT     H120810   5.060   2.416   0.159
 6756WAT     H220811   5.205   2.396   0.087
 6757WAT      O20812   4.251   2.118   0.328
 6757WAT     H120813   4.278   2.059   0.253
 6757WAT     H220814   4.251   2.213   0.297
 6758WAT      O20815   5.478   3.085   1.588
 6758WAT     H120816   5.569   3.046   1.575
 6758WAT     H220817   5.486   3.181   1.612
 6759WAT      O20818   4.788   3.209   1.340
 6759WAT     H120819   4.708   3.186   1.395
 6759WAT     H220820   4.871   3.183   1.389
 6760WAT      O20821   5.316   3.491   1.625
 6760WAT     H120822   5.343   3.525   1.535
 6760WAT     H220823   5.395   3.453   1.671
 6761WAT      O20824   4.835   3.057   1.100
 6761WAT     H120825   4.795   3.101   1.181
 6761WAT     H220826   4.794   3.094   1.017
 6762WAT      O20827   5.362   2.961   1.079
 6762WAT     H120828   5.367   3.042   1.138
 6762WAT     H220829   5.276   2.963   1.028
 6763WAT      O20830   4.639   1.951   1.402
 6763WAT     H120831   4.664   1.931   1.307
 6763WAT     H220832   4.711   2.007   1.444
 6764WAT      O20833   4.704   2.978   1.719
 6764WAT     H120834   4.605   2.984   1.729
 6764WAT     H220835   4.727   2.898   1.663
 6765WAT      O20836   4.429   2.912   0.368
 6765WAT     H120837   4.415   2.919   0.467
 6765WAT     H220838   4.513   2.861   0.350
 6766WAT      O20839   4.134   2.675   1.251
 6766WAT     H120840   4.220   2.687   1.301
 6766WAT     H220841   4.092   2.588   1.278
 6767WAT      O20842   4.998   2.248   1.262
 6767WAT     H120843   5.019   2.322   1.326
 6767WAT     H220844   4.909   2.265   1.219
 6768WAT      O20845   3.788   3.426   1.331
 6768WAT     H120846   3.742   3.508   1.297
 6768WAT     H220847   3.886   3.445   1.340
 6769WAT      O20848   4.091   2.962   0.501
 6769WAT     H120849   4.084   3.045   0.445
 6769WAT     H220850   4.095   2.882   0.441
 6770WAT      O20851   4.290   2.399   0.865
 6770WAT     H120852   4.302   2.465   0.791
 6770WAT     H220853   4.336   2.433   0.948
 6771WAT      O20854   4.976   3.210   0.388
 6771WAT     H120855   5.026   3.287   0.428
 6771WAT     H220856   4.881   3.212   0.420
 6772WAT      O20857   4.996   3.307   1.142
 6772WAT     H120858   5.043   3.320   1.229
 6772WAT     H220859   4.930   3.233   1.151
 6773WAT      O20860   5.306   2.501   0.472
 6773WAT     H120861   5.275   2.562   0.545
 6773WAT     H220862   5.356   2.553   0.403
 6774WAT      O20863   4.078   3.372   1.329
 6774WAT     H120864   4.057   3.328   1.242
 6774WAT     H220865   4.175   3.398   1.332
 6775WAT      O20866   4.126   2.613   1.598
 6775WAT     H120867   4.194   2.668   1.551
 6775WAT     H220868   4.166   2.525   1.625
 6776WAT      O20869   5.311   2.641   1.670
 6776WAT     H120870   5.219   2.679   1.665
 6776WAT     H220871   5.371   2.688   1.605
 6777WAT      O20872   4.737   1.967   1.770
 6777WAT     H120873   4.743   2.052   1.718
 6777WAT     H220874   4.769   1.891   1.713
 6778WAT      O20875   4.228   1.912   1.740
 6778WAT     H120876   4.186   1.855   1.670
 6778WAT     H220877   4.162   1.981   1.772
 6779WAT      O20878   4.297   2.732   1.029
 6779WAT     H120879   4.341   2.821   1.020
 6779WAT     H220880   4.234   2.732   1.106
 6780WAT      O20881   5.084   2.724   1.045
 6780WAT     H120882   5.009   2.724   0.979
 6780WAT     H220883   5.121   2.632   1.054
 6781WAT      O20884   4.933   2.387   0.275
 6781WAT     H120885   4.946   2.303   0.329
 6781WAT     H220886   4.904   2.461   0.335
 6782WAT      O20887   4.031   2.075   1.231
 6782WAT     H120888   4.008   2.112   1.321
 6782WAT     H220889   4.001   1.980   1.225
 6783WAT      O20890   3.761   3.172   1.282
 6783WAT     H120891   3.814   3.123   1.350
 6783WAT     H220892   3.783   3.270   1.287
 6784WAT      O20893   4.456   2.496   1.064
 6784WAT     H120894   4.515   2.470   0.988
 6784WAT     H220895   4.428   2.592   1.053
 6785WAT      O20896   5.452   2.797   1.854
 6785WAT     H120897   5.406   2.790   1.765
 6785WAT     H220898   5.390   2.841   1.920
 6786WAT      O20899   4.031   1.925   0.618
 6786WAT     H120900   4.020   2.019   0.651
 6786WAT     H220901   4.026   1.862   0.695
 6787WAT      O20902   5.346   2.229   0.374
 6787WAT     H120903   5.348   2.153   0.438
 6787WAT     H220904   5.298   2.306   0.414
 6788WAT      O20905   4.747   2.628   0.966
 6788WAT     H120906   4.762   2.649   1.062
 6788WAT     H220907   4.717   2.533   0.957
 6789WAT      O20908   4.704   3.435   1.700
 6789WAT     H120909   4.684   3.479   1.612
 6789WAT     H220910   4.743   3.344   1.684
 6790WAT      O20911   5.583   3.380   1.605
 6790WAT     H120912   5.597   3.407   1.510
 6790WAT     H220913   5.666   3.402   1.658
 6791WAT      O20914   4.074   2.760   1.804
 6791WAT     H120915   4.150   2.804   1.852
 6791WAT     H220916   4.109   2.713   1.722
 6792WAT      O20917   5.264   2.136   0.125
 6792WAT     H120918   5.203   2.061   0.148
 6792WAT     H220919   5.286   2.188   0.208
 6793WAT      O20920   5.027   2.700   0.042
 6793WAT     H120921   5.061   2.607   0.057
 6793WAT     H220922   5.045   2.727  -0.053
 6794WAT      O20923   4.792   3.195   0.849
 6794WAT     H120924   4.799   3.111   0.794
 6794WAT     H220925   4.854   3.264   0.813
 6795WAT      O20926   4.043   2.672   0.949
 6795WAT     H120927   4.136   2.708   0.954
 6795WAT     H220928   4.037   2.587   1.001
 6796WAT      O20929   4.063   2.371   1.006
 6796WAT     H120930   4.011   2.288   0.989
 6796WAT     H220931   4.140   2.376   0.942
 6797WAT      O20932   4.862   2.242   1.678
 6797WAT     H120933   4.817   2.305   1.742
 6797WAT     H220934   4.955   2.273   1.661
 6798WAT      O20935   4.884   2.069   1.477
 6798WAT     H120936   4.884   2.133   1.554
 6798WAT     H220937   4.912   2.117   1.394
 6799WAT      O20938   3.812   3.663   0.927
 6799WAT     H120939   3.770   3.577   0.900
 6799WAT     H220940   3.906   3.666   0.893
 6800WAT      O20941   4.228   3.430   0.910
 6800WAT     H120942   4.294   3.504   0.919
 6800WAT     H220943   4.272   3.351   0.868
 6801WAT      O20944   4.726   2.658   1.238
 6801WAT     H120945   4.767   2.626   1.324
 6801WAT     H220946   4.630   2.631   1.235
 6802WAT      O20947   3.764   2.406   1.114
 6802WAT     H120948   3.849   2.373   1.073
 6802WAT     H220949   3.777   2.421   1.212
 6803WAT      O20950   3.913   2.382   1.722
 6803WAT     H120951   3.972   2.342   1.652
 6803WAT     H220952   3.855   2.453   1.681
 6804WAT      O20953   5.093   2.812   1.660
 6804WAT     H120954   5.132   2.901   1.680
 6804WAT     H220955   5.103   2.792   1.563
 6805WAT      O20956   4.539   2.434   0.325
 6805WAT     H120957   4.546   2.345   0.279
 6805WAT     H220958   4.445   2.468   0.317
 6806WAT      O20959   5.381   2.466   1.206
 6806WAT     H120960   5.343   2.397   1.268
 6806WAT     H220961   5.463   2.430   1.162
 6807WAT      O20962   3.976   3.426   1.744
 6807WAT     H120963   3.946   3.483   1.820
 6807WAT     H220964   3.969   3.329   1.770
 6808WAT      O20965   4.395   2.326   1.269
 6808WAT     H120966   4.361   2.237   1.239
 6808WAT     H220967   4.421   2.380   1.189
 6809WAT      O20968   4.654   3.540   1.465
 6809WAT     H120969   4.630   3.522   1.370
 6809WAT     H220970   4.684   3.634   1.475
 6810WAT      O20971   4.197   2.362   0.191
 6810WAT     H120972   4.258   2.442   0.195
 6810WAT     H220973   4.102   2.393   0.198
 6811WAT      O20974   3.883   2.999   1.466
 6811WAT     H120975   3.905   2.938   1.542
 6811WAT     H220976   3.893   2.950   1.380
 6812WAT      O20977   5.071   2.921   1.234
 6812WAT     H120978   5.095   2.858   1.160
 6812WAT     H220979   4.981   2.961   1.216
 6813WAT      O20980   5.026   2.717   0.309
 6813WAT     H120981   4.940   2.686   0.351
 6813WAT     H220982   5.022   2.703   0.210
 6814WAT      O20983   5.483   3.609   1.154
 6814WAT     H120984   5.544   3.639   1.081
 6814WAT     H220985   5.445   3.520   1.132
 6815WAT      O20986   4.976   3.593   1.128
 6815WAT     H120987   5.060   3.598   1.074
 6815WAT     H220988   4.953   3.497   1.146
 6816WAT      O20989   3.807   3.120   1.022
 6816WAT     H120990   3.802   3.119   1.122
 6816WAT     H220991   3.724   3.079   0.984
 6817WAT      O20992   4.412   3.524   1.716
 6817WAT     H120993   4.356   3.605   1.725
 6817WAT     H220994   4.464   3.528   1.630
 6818WAT      O20995   4.627   1.948   0.133
 6818WAT     H120996   4.678   1.949   0.047
 6818WAT     H220997   4.683   1.906   0.204
 6819WAT      O20998   5.450   1.997   0.523
 6819WAT     H120999   5.523   1.980   0.456
 6819WAT     H221000   5.419   1.910   0.561
 6820WAT      O21001   5.112   3.435   0.477
 6820WAT     H121002   5.179   3.447   0.403
 6820WAT     H221003   5.072   3.524   0.500
 6821WAT      O21004   3.854   3.656   1.851
 6821WAT     H121005   3.813   3.582   1.904
 6821WAT     H221006   3.918   3.707   1.909
 6822WAT      O21007   5.004   2.789   0.672
 6822WAT     H121008   5.064   2.708   0.674
 6822WAT     H221009   5.044   2.858   0.612
 6823WAT      O21010   4.554   3.135   1.422
 6823WAT     H121011   4.549   3.168   1.517
 6823WAT     H221012   4.468   3.154   1.376
 6824WAT      O21013   4.396   3.478   0.154
 6824WAT     H121014   4.405   3.488   0.055
 6824WAT     H221015   4.356   3.389   0.175
 6825WAT      O21016   5.374   3.582   1.394
 6825WAT     H121017   5.427   3.592   1.310
 6825WAT     H221018   5.347   3.672   1.428
 6826WAT      O21019   5.565   2.037   0.963
 6826WAT     H121020   5.604   1.952   0.927
 6826WAT     H221021   5.467   2.039   0.944
 6827WAT      O21022   3.987   2.188   0.720
 6827WAT     H121023   3.908   2.239   0.686
 6827WAT     H221024   3.978   2.173   0.818
 6828WAT      O21025   4.918   3.474   0.031
 6828WAT     H121026   4.924   3.381   0.068
 6828WAT     H221027   4.859   3.474  -0.049
 6829WAT      O21028   4.546   2.864   1.372
 6829WAT     H121029   4.586   2.863   1.280
 6829WAT     H221030   4.556   2.956   1.412
 6830WAT      O21031   4.640   2.772   0.291
 6830WAT     H121032   4.703   2.810   0.223
 6830WAT     H221033   4.680   2.689   0.330
 6831WAT      O21034   5.228   3.469   0.044
 6831WAT     H121035   5.136   3.506   0.051
 6831WAT     H221036   5.266   3.489  -0.046
 6832WAT      O21037   4.096   3.150   1.490
 6832WAT     H121038   4.083   3.243   1.456
 6832WAT     H221039   4.012   3.098   1.477
 6833WAT      O21040   5.338   3.154   1.289
 6833WAT     H121041   5.398   3.157   1.369
 6833WAT     H221042   5.263   3.218   1.302
 6834WAT      O21043   4.763   2.960   0.696
 6834WAT     H121044   4.693   2.913   0.750
 6834WAT     H221045   4.822   2.892   0.653
 6835WAT      O21046   4.738   2.098   0.971
 6835WAT     H121047   4.730   2.062   0.878
 6835WAT     H221048   4.736   2.022   1.036
 6836WAT      O21049   4.314   3.349   0.491
 6836WAT     H121050   4.356   3.291   0.421
 6836WAT     H221051   4.270   3.428   0.447
 6837WAT      O21052   5.433   2.247   1.381
 6837WAT     H121053   5.506   2.316   1.385
 6837WAT     H221054   5.461   2.172   1.322
 6838WAT      O21055   3.979   3.210   0.290
 6838WAT     H121056   3.883   3.211   0.263
 6838WAT     H221057   3.991   3.263   0.374
 6839WAT      O21058   3.829   2.875   1.726
 6839WAT     H121059   3.752   2.842   1.780
 6839WAT     H221060   3.914   2.845   1.768
 6840WAT      O21061   4.396   2.065   1.489
 6840WAT     H121062   4.486   2.049   1.449
 6840WAT     H221063   4.404   2.070   1.588
 6841WAT      O21064   3.799   2.207   0.033
 6841WAT     H121065   3.707   2.179   0.004
 6841WAT     H221066   3.830   2.284  -0.023
 6842WAT      O21067   5.164   2.718   1.398
 6842WAT     H121068   5.107   2.770   1.335
 6842WAT     H221069   5.260   2.730   1.374
 6843WAT      O21070   3.796   2.028   0.318
 6843WAT     H121071   3.779   2.111   0.264
 6843WAT     H221072   3.886   1.991   0.296
 6844WAT      O21073   4.907   3.197   0.119
 6844WAT     H121074   4.808   3.186   0.121
 6844WAT     H221075   4.941   3.212   0.212
 6845WAT      O21076   4.337   2.704   1.431
 6845WAT     H121077   4.393   2.785   1.414
 6845WAT     H221078   4.396   2.624   1.434
 6846WAT      O21079   5.217   3.629   0.959
 6846WAT     H121080   5.250   3.693   0.890
 6846WAT     H221081   5.283   3.623   1.034
 6847WAT      O21082   4.440   2.427   1.708
 6847WAT     H121083   4.459   2.492   1.782
 6847WAT     H221084   4.500   2.347   1.717
 6848WAT      O21085   5.174   3.082   1.633
 6848WAT     H121086   5.165   3.072   1.732
 6848WAT     H221087   5.270   3.075   1.607
 6849WAT      O21088   4.114   3.603   1.560
 6849WAT     H121089   4.023   3.644   1.558
 6849WAT     H221090   4.107   3.509   1.592
 6850WAT      O21091   5.398   2.745   1.254
 6850WAT     H121092   5.371   2.656   1.217
 6850WAT     H221093   5.399   2.813   1.181
 6851WAT      O21094   4.949   2.187   0.449
 6851WAT     H121095   5.014   2.113   0.438
 6851WAT     H221096   4.969   2.237   0.533
 6852WAT      O21097   4.318   2.607   0.652
 6852WAT     H121098   4.368   2.692   0.633
 6852WAT     H221099   4.230   2.609   0.604
 6853WAT      O21100   5.501   2.204   1.642
 6853WAT     H121101   5.484   2.235   1.548
 6853WAT     H221102   5.417   2.167   1.680
 6854WAT      O21103   5.454   2.796   1.517
 6854WAT     H121104   5.492   2.887   1.532
 6854WAT     H221105   5.446   2.779   1.418
 6855WAT      O21106   4.583   3.236   0.016
 6855WAT     H121107   4.537   3.251   0.104
 6855WAT     H221108   4.627   3.321  -0.014
 6856WAT      O21109   4.385   3.652   0.953
 6856WAT     H121110   4.339   3.740   0.940
 6856WAT     H221111   4.484   3.664   0.946
 6857WAT      O21112   4.583   2.818   0.861
 6857WAT     H121113   4.637   2.749   0.909
 6857WAT     H221114   4.551   2.887   0.927
 6858WAT      O21115   4.807   2.846   0.087
 6858WAT     H121116   4.784   2.899   0.005
 6858WAT     H221117   4.888   2.790   0.068
 6859WAT      O21118   5.585   3.431   0.851
 6859WAT     H121119   5.514   3.419   0.781
 6859WAT     H221120   5.586   3.352   0.911
 6860WAT      O21121   3.945   3.176   1.844
 6860WAT     H121122   3.880   3.103   1.823
 6860WAT     H221123   3.949   3.190   1.942
 6861WAT      O21124   3.803   3.102   0.653
 6861WAT     H121125   3.802   3.055   0.741
 6861WAT     H221126   3.885   3.074   0.602
 6862WAT      O21127   4.396   3.253   1.624
 6862WAT     H121128   4.318   3.203   1.662
 6862WAT     H221129   4.393   3.348   1.655
 6863WAT      O21130   5.548   2.054   1.227
 6863WAT     H121131   5.544   1.964   1.271
 6863WAT     H221132   5.551   2.043   1.128
 6864WAT      O21133   4.152   2.286   0.520
 6864WAT     H121134   4.182   2.214   0.458
 6864WAT     H221135   4.113   2.246   0.603
 6865WAT      O21136   5.429   3.349   1.104
 6865WAT     H121137   5.336   3.324   1.077
 6865WAT     H221138   5.455   3.299   1.186
 6866WAT      O21139   4.041   2.409   1.280
 6866WAT     H121140   4.079   2.350   1.352
 6866WAT     H221141   4.081   2.383   1.192
 6867WAT      O21142   4.536   3.448   0.687
 6867WAT     H121143   4.568   3.458   0.593
 6867WAT     H221144   4.457   3.386   0.689
 6868WAT      O21145   5.148   2.076   1.112
 6868WAT     H121146   5.200   2.011   1.167
 6868WAT     H221147   5.099   2.139   1.173
 6869WAT      O21148   4.725   1.896   1.154
 6869WAT     H121149   4.662   1.824   1.123
 6869WAT     H221150   4.818   1.860   1.154
 6870WAT      O21151   4.494   3.192   0.301
 6870WAT     H121152   4.448   3.105   0.318
 6870WAT     H221153   4.585   3.189   0.342
 6871WAT      O21154   4.342   3.429   1.284
 6871WAT     H121155   4.337   3.511   1.341
 6871WAT     H221156   4.431   3.426   1.239
 6872WAT      O21157   5.076   1.914   0.168
 6872WAT     H121158   5.111   1.873   0.084
 6872WAT     H221159   4.986   1.876   0.188
 6873WAT      O21160   5.024   2.315   0.691
 6873WAT     H121161   4.965   2.395   0.695
 6873WAT     H221162   5.039   2.280   0.784
 6874WAT      O21163   5.317   2.083   0.882
 6874WAT     H121164   5.233   2.082   0.936
 6874WAT     H221165   5.319   2.166   0.826
 6875WAT      O21166   3.763   2.939   0.300
 6875WAT     H121167   3.862   2.928   0.291
 6875WAT     H221168   3.723   2.853   0.332
 6876WAT      O21169   4.599   3.508   0.337
 6876WAT     H121170   4.522   3.473   0.283
 6876WAT     H221171   4.567   3.579   0.399
 6877WAT      O21172   3.954   2.490   1.975
 6877WAT     H121173   3.861   2.488   2.012
 6877WAT     H221174   3.955   2.451   1.883
 6878WAT      O21175   3.743   2.230   2.509
 6878WAT     H121176   3.661   2.273   2.548
 6878WAT     H221177   3.715   2.157   2.446
 6879WAT      O21178   5.279   3.373   2.565
 6879WAT     H121179   5.222   3.357   2.646
 6879WAT     H221180   5.220   3.383   2.485
 6880WAT      O21181   4.859   2.565   2.579
 6880WAT     H121182   4.916   2.643   2.554
 6880WAT     H221183   4.799   2.591   2.655
 6881WAT      O21184   5.479   2.469   2.093
 6881WAT     H121185   5.467   2.456   1.994
 6881WAT     H221186   5.449   2.388   2.142
 6882WAT      O21187   4.574   2.660   3.685
 6882WAT     H121188   4.570   2.736   3.750
 6882WAT     H221189   4.596   2.696   3.594
 6883WAT      O21190   4.409   2.874   2.527
 6883WAT     H121191   4.478   2.858   2.597
 6883WAT     H221192   4.336   2.931   2.565
 6884WAT      O21193   4.410   3.023   3.665
 6884WAT     H121194   4.470   3.102   3.679
 6884WAT     H221195   4.324   3.054   3.624
 6885WAT      O21196   4.059   3.297   2.923
 6885WAT     H121197   3.981   3.266   2.870
 6885WAT     H221198   4.117   3.355   2.866
 6886WAT      O21199   4.162   2.254   3.361
 6886WAT     H121200   4.244   2.198   3.370
 6886WAT     H221201   4.081   2.196   3.365
 6887WAT      O21202   5.327   2.309   2.599
 6887WAT     H121203   5.253   2.355   2.549
 6887WAT     H221204   5.378   2.377   2.652
 6888WAT      O21205   3.955   3.575   2.345
 6888WAT     H121206   3.989   3.652   2.399
 6888WAT     H221207   3.999   3.575   2.255
 6889WAT      O21208   3.954   3.296   2.400
 6889WAT     H121209   3.928   3.392   2.400
 6889WAT     H221210   3.883   3.242   2.445
 6890WAT      O21211   3.964   2.953   2.748
 6890WAT     H121212   3.978   2.869   2.800
 6890WAT     H221213   3.909   3.017   2.803
 6891WAT      O21214   4.330   2.826   1.985
 6891WAT     H121215   4.337   2.910   1.931
 6891WAT     H221216   4.376   2.839   2.073
 6892WAT      O21217   5.318   1.976   3.342
 6892WAT     H121218   5.300   2.043   3.270
 6892WAT     H221219   5.315   2.022   3.431
 6893WAT      O21220   3.846   2.505   2.425
 6893WAT     H121221   3.801   2.417   2.442
 6893WAT     H221222   3.845   2.559   2.509
 6894WAT      O21223   5.566   3.629   2.221
 6894WAT     H121224   5.620   3.600   2.301
 6894WAT     H221225   5.596   3.719   2.192
 6895WAT      O21226   3.751   3.458   1.979
 6895WAT     H121227   3.732   3.362   2.000
 6895WAT     H221228   3.718   3.516   2.054
 6896WAT      O21229   5.413   2.784   2.474
 6896WAT     H121230   5.508   2.755   2.482
 6896WAT     H221231   5.405   2.849   2.399
 6897WAT      O21232   5.365   2.970   2.294
 6897WAT     H121233   5.451   2.972   2.242
 6897WAT     H221234   5.379   3.017   2.382
 6898WAT      O21235   4.337   3.227   2.588
 6898WAT     H121236   4.288   3.140   2.597
 6898WAT     H221237   4.314   3.270   2.501
 6899WAT      O21238   4.533   1.866   2.364
 6899WAT     H121239   4.573   1.957   2.355
 6899WAT     H221240   4.433   1.874   2.370
 6900WAT      O21241   5.249   2.861   2.052
 6900WAT     H121242   5.186   2.785   2.065
 6900WAT     H221243   5.297   2.879   2.138
 6901WAT      O21244   4.911   3.654   3.478
 6901WAT     H121245   4.935   3.714   3.402
 6901WAT     H221246   4.918   3.559   3.448
 6902WAT      O21247   4.041   2.113   3.663
 6902WAT     H121248   4.112   2.184   3.669
 6902WAT     H221249   3.953   2.152   3.691
 6903WAT      O21250   5.190   3.279   2.815
 6903WAT     H121251   5.131   3.285   2.895
 6903WAT     H221252   5.175   3.191   2.769
 6904WAT      O21253   5.391   3.576   2.434
 6904WAT     H121254   5.350   3.553   2.346
 6904WAT     H221255   5.373   3.502   2.499
 6905WAT      O21256   4.322   2.591   2.132
 6905WAT     H121257   4.346   2.660   2.064
 6905WAT     H221258   4.244   2.624   2.186
 6906WAT      O21259   5.005   2.207   2.806
 6906WAT     H121260   4.919   2.157   2.793
 6906WAT     H221261   5.067   2.153   2.862
 6907WAT      O21262   5.300   3.524   2.169
 6907WAT     H121263   5.389   3.570   2.172
 6907WAT     H221264   5.279   3.500   2.074
 6908WAT      O21265   4.531   2.467   3.327
 6908WAT     H121266   4.484   2.464   3.416
 6908WAT     H221267   4.480   2.412   3.261
 6909WAT      O21268   5.118   2.331   3.536
 6909WAT     H121269   5.098   2.374   3.624
 6909WAT     H221270   5.196   2.269   3.545
 6910WAT      O21271   4.697   2.752   3.434
 6910WAT     H121272   4.743   2.668   3.405
 6910WAT     H221273   4.641   2.786   3.359
 6911WAT      O21274   4.715   2.272   3.104
 6911WAT     H121275   4.638   2.306   3.158
 6911WAT     H221276   4.681   2.221   3.025
 6912WAT      O21277   4.765   2.563   2.291
 6912WAT     H121278   4.791   2.559   2.387
 6912WAT     H221279   4.680   2.512   2.277
 6913WAT      O21280   3.800   2.673   2.651
 6913WAT     H121281   3.899   2.661   2.660
 6913WAT     H221282   3.776   2.768   2.672
 6914WAT      O21283   4.589   2.210   2.057
 6914WAT     H121284   4.648   2.273   2.008
 6914WAT     H221285   4.608   2.116   2.028
 6915WAT      O21286   5.443   2.447   3.693
 6915WAT     H121287   5.417   2.536   3.657
 6915WAT     H221288   5.441   2.379   3.620
 6916WAT      O21289   5.086   3.006   2.407
 6916WAT     H121290   5.169   2.977   2.359
 6916WAT     H221291   5.037   3.073   2.351
 6917WAT      O21292   4.274   2.058   2.747
 6917WAT     H121293   4.269   2.053   2.847
 6917WAT     H221294   4.276   2.154   2.718
 6918WAT      O21295   4.732   3.318   2.339
 6918WAT     H121296   4.686   3.390   2.287
 6918WAT     H221297   4.728   3.338   2.437
 6919WAT      O21298   5.519   2.928   2.735
 6919WAT     H121299   5.457   2.913   2.659
 6919WAT     H221300   5.467   2.939   2.820
 6920WAT      O21301   4.045   2.805   2.104
 6920WAT     H121302   4.127   2.844   2.062
 6920WAT     H221303   4.018   2.723   2.055
 6921WAT      O21304   5.182   2.597   2.590
 6921WAT     H121305   5.177   2.532   2.665
 6921WAT     H221306   5.262   2.656   2.603
 6922WAT      O21307   4.835   3.638   2.099
 6922WAT     H121308   4.775   3.576   2.149
 6922WAT     H221309   4.866   3.594   2.014
 6923WAT      O21310   3.926   2.147   3.360
 6923WAT     H121311   3.846   2.207   3.347
 6923WAT     H221312   3.916   2.098   3.446
 6924WAT      O21313   5.356   3.239   1.943
 6924WAT     H121314   5.324   3.333   1.933
 6924WAT     H221315   5.280   3.176   1.931
 6925WAT      O21316   4.188   3.605   2.185
 6925WAT     H121317   4.221   3.644   2.271
 6925WAT     H221318   4.264   3.598   2.120
 6926WAT      O21319   5.124   1.969   2.288
 6926WAT     H121320   5.100   1.932   2.198
 6926WAT     H221321   5.223   1.985   2.292
 6927WAT      O21322   4.664   3.560   2.766
 6927WAT     H121323   4.744   3.503   2.787
 6927WAT     H221324   4.615   3.520   2.689
 6928WAT      O21325   4.106   2.562   2.342
 6928WAT     H121326   4.151   2.472   2.339
 6928WAT     H221327   4.012   2.551   2.375
 6929WAT      O21328   5.271   2.084   3.591
 6929WAT     H121329   5.266   2.121   3.683
 6929WAT     H221330   5.199   2.015   3.579
 6930WAT      O21331   4.338   1.984   1.979
 6930WAT     H121332   4.436   1.962   1.986
 6930WAT     H221333   4.307   1.967   1.886
 6931WAT      O21334   4.505   2.126   3.611
 6931WAT     H121335   4.572   2.065   3.654
 6931WAT     H221336   4.432   2.145   3.676
 6932WAT      O21337   5.075   2.452   3.295
 6932WAT     H121338   5.103   2.409   3.380
 6932WAT     H221339   5.100   2.548   3.296
 6933WAT      O21340   4.527   3.264   2.786
 6933WAT     H121341   4.617   3.278   2.744
 6933WAT     H221342   4.456   3.266   2.715
 6934WAT      O21343   4.646   2.365   2.761
 6934WAT     H121344   4.621   2.356   2.665
 6934WAT     H221345   4.694   2.283   2.792
 6935WAT      O21346   4.263   1.926   2.374
 6935WAT     H121347   4.182   1.927   2.432
 6935WAT     H221348   4.266   2.009   2.319
 6936WAT      O21349   5.158   3.050   1.903
 6936WAT     H121350   5.190   2.974   1.960
 6936WAT     H221351   5.066   3.077   1.933
 6937WAT      O21352   4.021   1.897   2.033
 6937WAT     H121353   4.070   1.981   2.012
 6937WAT     H221354   4.083   1.832   2.078
 6938WAT      O21355   4.659   2.098   2.342
 6938WAT     H121356   4.611   2.139   2.264
 6938WAT     H221357   4.758   2.096   2.323
 6939WAT      O21358   4.800   2.545   3.326
 6939WAT     H121359   4.720   2.484   3.329
 6939WAT     H221360   4.881   2.492   3.302
 6940WAT      O21361   4.951   3.432   2.655
 6940WAT     H121362   4.972   3.506   2.590
 6940WAT     H221363   5.019   3.432   2.728
 6941WAT      O21364   4.183   3.014   2.603
 6941WAT     H121365   4.112   2.987   2.668
 6941WAT     H221366   4.157   2.986   2.510
 6942WAT      O21367   4.995   3.659   2.453
 6942WAT     H121368   5.039   3.723   2.389
 6942WAT     H221369   4.945   3.711   2.523
 6943WAT      O21370   4.756   2.411   1.878
 6943WAT     H121371   4.715   2.493   1.839
 6943WAT     H221372   4.820   2.437   1.951
 6944WAT      O21373   4.285   2.084   3.009
 6944WAT     H121374   4.323   2.000   3.046
 6944WAT     H221375   4.197   2.103   3.053
 6945WAT      O21376   4.590   2.316   2.504
 6945WAT     H121377   4.558   2.388   2.442
 6945WAT     H221378   4.614   2.235   2.451
 6946WAT      O21379   4.741   1.901   2.615
 6946WAT     H121380   4.669   1.906   2.546
 6946WAT     H221381   4.717   1.832   2.684
 6947WAT      O21382   5.153   3.035   2.729
 6947WAT     H121383   5.098   2.951   2.722
 6947WAT     H221384   5.179   3.064   2.637
 6948WAT      O21385   5.190   2.452   2.854
 6948WAT     H121386   5.160   2.357   2.861
 6948WAT     H221387   5.263   2.468   2.920
 6949WAT      O21388   5.581   2.695   2.239
 6949WAT     H121389   5.623   2.631   2.303
 6949WAT     H221390   5.543   2.644   2.161
 6950WAT      O21391   4.212   3.247   2.036
 6950WAT     H121392   4.125   3.232   2.083
 6950WAT     H221393   4.195   3.273   1.941
 6951WAT      O21394   5.388   3.142   2.519
 6951WAT     H121395   5.487   3.150   2.533
 6951WAT     H221396   5.343   3.226   2.550
 6952WAT      O21397   5.114   2.437   1.940
 6952WAT     H121398   5.060   2.416   2.021
 6952WAT     H221399   5.205   2.396   1.949
 6953WAT      O21400   4.251   2.118   2.190
 6953WAT     H121401   4.278   2.059   2.115
 6953WAT     H221402   4.251   2.213   2.159
 6954WAT      O21403   5.478   3.085   3.450
 6954WAT     H121404   5.569   3.046   3.437
 6954WAT     H221405   5.486   3.181   3.474
 6955WAT      O21406   5.316   3.491   3.487
 6955WAT     H121407   5.343   3.525   3.397
 6955WAT     H221408   5.395   3.453   3.533
 6956WAT      O21409   5.362   2.961   2.941
 6956WAT     H121410   5.367   3.042   3.000
 6956WAT     H221411   5.276   2.963   2.890
 6957WAT      O21412   4.639   1.951   3.264
 6957WAT     H121413   4.664   1.931   3.169
 6957WAT     H221414   4.711   2.007   3.306
 6958WAT      O21415   4.704   2.978   3.581
 6958WAT     H121416   4.605   2.984   3.591
 6958WAT     H221417   4.727   2.898   3.525
 6959WAT      O21418   4.429   2.912   2.230
 6959WAT     H121419   4.415   2.919   2.329
 6959WAT     H221420   4.513   2.861   2.212
 6960WAT      O21421   4.134   2.675   3.113
 6960WAT     H121422   4.220   2.687   3.163
 6960WAT     H221423   4.092   2.588   3.140
 6961WAT      O21424   4.998   2.248   3.124
 6961WAT     H121425   5.019   2.322   3.188
 6961WAT     H221426   4.909   2.265   3.081
 6962WAT      O21427   4.091   2.962   2.363
 6962WAT     H121428   4.084   3.045   2.307
 6962WAT     H221429   4.095   2.882   2.303
 6963WAT      O21430   4.290   2.399   2.727
 6963WAT     H121431   4.302   2.465   2.653
 6963WAT     H221432   4.336   2.433   2.810
 6964WAT      O21433   4.976   3.210   2.250
 6964WAT     H121434   5.026   3.287   2.290
 6964WAT     H221435   4.881   3.212   2.282
 6965WAT      O21436   5.306   2.501   2.334
 6965WAT     H121437   5.275   2.562   2.407
 6965WAT     H221438   5.356   2.553   2.265
 6966WAT      O21439   5.311   2.641   3.532
 6966WAT     H121440   5.219   2.679   3.527
 6966WAT     H221441   5.371   2.688   3.467
 6967WAT      O21442   4.737   1.967   3.632
 6967WAT     H121443   4.743   2.052   3.580
 6967WAT     H221444   4.769   1.891   3.575
 6968WAT      O21445   4.228   1.912   3.602
 6968WAT     H121446   4.186   1.855   3.532
 6968WAT     H221447   4.162   1.981   3.634
 6969WAT      O21448   4.297   2.732   2.891
 6969WAT     H121449   4.341   2.821   2.882
 6969WAT     H221450   4.234   2.732   2.968
 6970WAT      O21451   5.084   2.724   2.907
 6970WAT     H121452   5.009   2.724   2.841
 6970WAT     H221453   5.121   2.632   2.916
 6971WAT      O21454   4.933   2.387   2.137
 6971WAT     H121455   4.946   2.303   2.191
 6971WAT     H221456   4.904   2.461   2.197
 6972WAT      O21457   4.031   2.075   3.093
 6972WAT     H121458   4.008   2.112   3.183
 6972WAT     H221459   4.001   1.980   3.087
 6973WAT      O21460   3.761   3.172   3.144
 6973WAT     H121461   3.814   3.123   3.212
 6973WAT     H221462   3.783   3.270   3.149
 6974WAT      O21463   4.456   2.496   2.926
 6974WAT     H121464   4.515   2.470   2.850
 6974WAT     H221465   4.428   2.592   2.915
 6975WAT      O21466   5.452   2.797   3.716
 6975WAT     H121467   5.406   2.790   3.627
 6975WAT     H221468   5.390   2.841   3.782
 6976WAT      O21469   4.031   1.925   2.480
 6976WAT     H121470   4.020   2.019   2.513
 6976WAT     H221471   4.026   1.862   2.557
 6977WAT      O21472   5.346   2.229   2.236
 6977WAT     H121473   5.348   2.153   2.300
 6977WAT     H221474   5.298   2.306   2.276
 6978WAT      O21475   4.747   2.628   2.828
 6978WAT     H121476   4.762   2.649   2.924
 6978WAT     H221477   4.717   2.533   2.819
 6979WAT      O21478   5.583   3.380   3.467
 6979WAT     H121479   5.597   3.407   3.372
 6979WAT     H221480   5.666   3.402   3.520
 6980WAT      O21481   5.264   2.136   1.987
 6980WAT     H121482   5.203   2.061   2.010
 6980WAT     H221483   5.286   2.188   2.070
 6981WAT      O21484   5.027   2.700   1.904
 6981WAT     H121485   5.061   2.607   1.919
 6981WAT     H221486   5.045   2.727   1.809
 6982WAT      O21487   4.792   3.195   2.711
 6982WAT     H121488   4.799   3.111   2.656
 6982WAT     H221489   4.854   3.264   2.675
 6983WAT      O21490   4.043   2.672   2.811
 6983WAT     H121491   4.136   2.708   2.816
 6983WAT     H221492   4.037   2.587   2.863
 6984WAT      O21493   4.063   2.371   2.868
 6984WAT     H121494   4.011   2.288   2.851
 6984WAT     H221495   4.140   2.376   2.804
 6985WAT      O21496   4.862   2.242   3.540
 6985WAT     H121497   4.817   2.305   3.604
 6985WAT     H221498   4.955   2.273   3.523
 6986WAT      O21499   4.884   2.069   3.339
 6986WAT     H121500   4.884   2.133   3.416
 6986WAT     H221501   4.912   2.117   3.256
 6987WAT      O21502   3.732   3.188   2.062
 6987WAT     H121503   3.639   3.209   2.031
 6987WAT     H221504   3.742   3.089   2.075
 6988WAT      O21505   4.726   2.658   3.100
 6988WAT     H121506   4.767   2.626   3.186
 6988WAT     H221507   4.630   2.631   3.097
 6989WAT      O21508   3.913   2.382   3.584
 6989WAT     H121509   3.972   2.342   3.514
 6989WAT     H221510   3.855   2.453   3.543
 6990WAT      O21511   5.093   2.812   3.522
 6990WAT     H121512   5.132   2.901   3.542
 6990WAT     H221513   5.103   2.792   3.425
 6991WAT      O21514   4.539   2.434   2.187
 6991WAT     H121515   4.546   2.345   2.141
 6991WAT     H221516   4.445   2.468   2.179
 6992WAT      O21517   5.381   2.466   3.068
 6992WAT     H121518   5.343   2.397   3.130
 6992WAT     H221519   5.463   2.430   3.024
 6993WAT      O21520   4.395   2.326   3.131
 6993WAT     H121521   4.361   2.237   3.101
 6993WAT     H221522   4.421   2.380   3.051
 6994WAT      O21523   4.197   2.362   2.053
 6994WAT     H121524   4.258   2.442   2.057
 6994WAT     H221525   4.102   2.393   2.060
 6995WAT      O21526   5.026   2.717   2.171
 6995WAT     H121527   4.940   2.686   2.213
 6995WAT     H221528   5.022   2.703   2.072
 6996WAT      O21529   5.483   3.609   3.016
 6996WAT     H121530   5.544   3.639   2.943
 6996WAT     H221531   5.445   3.520   2.994
 6997WAT      O21532   3.807   3.120   2.884
 6997WAT     H121533   3.802   3.119   2.984
 6997WAT     H221534   3.724   3.079   2.846
 6998WAT      O21535   5.450   1.997   2.385
 6998WAT     H121536   5.523   1.980   2.318
 6998WAT     H221537   5.419   1.910   2.423
 6999WAT      O21538   5.112   3.435   2.339
 6999WAT     H121539   5.179   3.447   2.265
 6999WAT     H221540   5.072   3.524   2.362
 7000WAT      O21541   5.004   2.789   2.534
 7000WAT     H121542   5.064   2.708   2.536
 7000WAT     H221543   5.044   2.858   2.474
 7001WAT      O21544   4.396   3.478   2.016
 7001WAT     H121545   4.405   3.488   1.917
 7001WAT     H221546   4.356   3.389   2.037
 7002WAT      O21547   5.374   3.582   3.256
 7002WAT     H121548   5.427   3.592   3.172
 7002WAT     H221549   5.347   3.672   3.290
 7003WAT      O21550   5.565   2.037   2.825
 7003WAT     H121551   5.604   1.952   2.789
 7003WAT     H221552   5.467   2.039   2.806
 7004WAT      O21553   3.987   2.188   2.582
 7004WAT     H121554   3.908   2.239   2.548
 7004WAT     H221555   3.978   2.173   2.680
 7005WAT      O21556   4.918   3.474   1.893
 7005WAT     H121557   4.924   3.381   1.930
 7005WAT     H221558   4.859   3.474   1.813
 7006WAT      O21559   4.640   2.772   2.153
 7006WAT     H121560   4.703   2.810   2.085
 7006WAT     H221561   4.680   2.689   2.192
 7007WAT      O21562   5.228   3.469   1.906
 7007WAT     H121563   5.136   3.506   1.913
 7007WAT     H221564   5.266   3.489   1.816
 7008WAT      O21565   5.338   3.154   3.151
 7008WAT     H121566   5.398   3.157   3.231
 7008WAT     H221567   5.263   3.218   3.164
 7009WAT      O21568   4.763   2.960   2.558
 7009WAT     H121569   4.693   2.913   2.612
 7009WAT     H221570   4.822   2.892   2.515
 7010WAT      O21571   4.738   2.098   2.833
 7010WAT     H121572   4.730   2.062   2.740
 7010WAT     H221573   4.736   2.022   2.898
 7011WAT      O21574   4.314   3.349   2.353
 7011WAT     H121575   4.356   3.291   2.283
 7011WAT     H221576   4.270   3.428   2.309
 7012WAT      O21577   5.433   2.247   3.243
 7012WAT     H121578   5.506   2.316   3.247
 7012WAT     H221579   5.461   2.172   3.184
 7013WAT      O21580   3.979   3.210   2.152
 7013WAT     H121581   3.883   3.211   2.125
 7013WAT     H221582   3.991   3.263   2.236
 7014WAT      O21583   4.396   2.065   3.351
 7014WAT     H121584   4.486   2.049   3.311
 7014WAT     H221585   4.404   2.070   3.450
 7015WAT      O21586   3.799   2.207   1.895
 7015WAT     H121587   3.707   2.179   1.866
 7015WAT     H221588   3.830   2.284   1.839
 7016WAT      O21589   5.164   2.718   3.260
 7016WAT     H121590   5.107   2.770   3.197
 7016WAT     H221591   5.260   2.730   3.236
 7017WAT      O21592   3.796   2.028   2.180
 7017WAT     H121593   3.779   2.111   2.126
 7017WAT     H221594   3.886   1.991   2.158
 7018WAT      O21595   4.907   3.197   1.981
 7018WAT     H121596   4.808   3.186   1.983
 7018WAT     H221597   4.941   3.212   2.074
 7019WAT      O21598   5.217   3.629   2.821
 7019WAT     H121599   5.250   3.693   2.752
 7019WAT     H221600   5.283   3.623   2.896
 7020WAT      O21601   4.440   2.427   3.570
 7020WAT     H121602   4.459   2.492   3.644
 7020WAT     H221603   4.500   2.347   3.579
 7021WAT      O21604   5.174   3.082   3.495
 7021WAT     H121605   5.165   3.072   3.594
 7021WAT     H221606   5.270   3.075   3.469
 7022WAT      O21607   5.398   2.745   3.116
 7022WAT     H121608   5.371   2.656   3.079
 7022WAT     H221609   5.399   2.813   3.043
 7023WAT      O21610   4.949   2.187   2.311
 7023WAT     H121611   5.014   2.113   2.300
 7023WAT     H221612   4.969   2.237   2.395
 7024WAT      O21613   4.318   2.607   2.514
 7024WAT     H121614   4.368   2.692   2.495
 7024WAT     H221615   4.230   2.609   2.466
 7025WAT      O21616   5.501   2.204   3.504
 7025WAT     H121617   5.484   2.235   3.410
 7025WAT     H221618   5.417   2.167   3.542
 7026WAT      O21619   5.454   2.796   3.379
 7026WAT     H121620   5.492   2.887   3.394
 7026WAT     H221621   5.446   2.779   3.280
 7027WAT      O21622   4.583   3.236   1.878
 7027WAT     H121623   4.537   3.251   1.966
 7027WAT     H221624   4.627   3.321   1.848
 7028WAT      O21625   4.583   2.818   2.723
 7028WAT     H121626   4.637   2.749   2.771
 7028WAT     H221627   4.551   2.887   2.789
 7029WAT      O21628   4.807   2.846   1.949
 7029WAT     H121629   4.784   2.899   1.867
 7029WAT     H221630   4.888   2.790   1.930
 7030WAT      O21631   5.585   3.431   2.713
 7030WAT     H121632   5.514   3.419   2.643
 7030WAT     H221633   5.586   3.352   2.773
 7031WAT      O21634   3.803   3.102   2.515
 7031WAT     H121635   3.802   3.055   2.603
 7031WAT     H221636   3.885   3.074   2.464
 7032WAT      O21637   5.548   2.054   3.089
 7032WAT     H121638   5.544   1.964   3.133
 7032WAT     H221639   5.551   2.043   2.990
 7033WAT      O21640   4.152   2.286   2.382
 7033WAT     H121641   4.182   2.214   2.320
 7033WAT     H221642   4.113   2.246   2.465
 7034WAT      O21643   5.429   3.349   2.966
 7034WAT     H121644   5.336   3.324   2.939
 7034WAT     H221645   5.455   3.299   3.048
 7035WAT      O21646   4.041   2.409   3.142
 7035WAT     H121647   4.079   2.350   3.214
 7035WAT     H221648   4.081   2.383   3.054
 7036WAT      O21649   4.536   3.448   2.549
 7036WAT     H121650   4.568   3.458   2.455
 7036WAT     H221651   4.457   3.386   2.551
 7037WAT      O21652   5.148   2.076   2.974
 7037WAT     H121653   5.200   2.011   3.029
 7037WAT     H221654   5.099   2.139   3.035
 7038WAT      O21655   4.725   1.896   3.016
 7038WAT     H121656   4.662   1.824   2.985
 7038WAT     H221657   4.818   1.860   3.016
 7039WAT      O21658   4.494   3.192   2.163
 7039WAT     H121659   4.448   3.105   2.180
 7039WAT     H221660   4.585   3.189   2.204
 7040WAT      O21661   5.076   1.914   2.030
 7040WAT     H121662   5.111   1.873   1.946
 7040WAT     H221663   4.986   1.876   2.050
 7041WAT      O21664   5.024   2.315   2.553
 7041WAT     H121665   4.965   2.395   2.557
 7041WAT     H221666   5.039   2.280   2.646
 7042WAT      O21667   5.317   2.083   2.744
 7042WAT     H121668   5.233   2.082   2.798
 7042WAT     H221669   5.319   2.166   2.688
 7043WAT      O21670   3.763   2.939   2.162
 7043WAT     H121671   3.862   2.928   2.153
 7043WAT     H221672   3.723   2.853   2.194
 7044WAT      O21673   4.599   3.508   2.199
 7044WAT     H121674   4.522   3.473   2.145
 7044WAT     H221675   4.567   3.579   2.261
 7045WAT      O21676   3.949   2.137   4.720
 7045WAT     H121677   3.984   2.120   4.812
 7045WAT     H221678   3.861   2.092   4.708
 7046WAT      O21679   4.293   3.137   4.889
 7046WAT     H121680   4.200   3.130   4.852
 7046WAT     H221681   4.304   3.226   4.933
 7047WAT      O21682   5.279   3.373   4.427
 7047WAT     H121683   5.222   3.357   4.508
 7047WAT     H221684   5.220   3.383   4.347
 7048WAT      O21685   4.859   2.565   4.441
 7048WAT     H121686   4.916   2.643   4.416
 7048WAT     H221687   4.799   2.591   4.517
 7049WAT      O21688   5.479   2.469   3.955
 7049WAT     H121689   5.467   2.456   3.856
 7049WAT     H221690   5.449   2.388   4.004
 7050WAT      O21691   4.492   3.006   4.747
 7050WAT     H121692   4.414   3.023   4.807
 7050WAT     H221693   4.526   3.093   4.711
 7051WAT      O21694   4.574   2.660   5.547
 7051WAT     H121695   4.570   2.736   5.612
 7051WAT     H221696   4.596   2.696   5.456
 7052WAT      O21697   4.410   3.023   5.527
 7052WAT     H121698   4.470   3.102   5.541
 7052WAT     H221699   4.324   3.054   5.486
 7053WAT      O21700   4.059   3.297   4.785
 7053WAT     H121701   3.981   3.266   4.732
 7053WAT     H221702   4.117   3.355   4.728
 7054WAT      O21703   5.184   3.367   5.063
 7054WAT     H121704   5.208   3.461   5.089
 7054WAT     H221705   5.168   3.313   5.145
 7055WAT      O21706   4.162   2.254   5.223
 7055WAT     H121707   4.244   2.198   5.232
 7055WAT     H221708   4.081   2.196   5.227
 7056WAT      O21709   5.327   2.309   4.461
 7056WAT     H121710   5.253   2.355   4.411
 7056WAT     H221711   5.378   2.377   4.514
 7057WAT      O21712   3.955   3.575   4.207
 7057WAT     H121713   3.989   3.652   4.261
 7057WAT     H221714   3.999   3.575   4.117
 7058WAT      O21715   4.851   3.203   5.414
 7058WAT     H121716   4.898   3.203   5.502
 7058WAT     H221717   4.803   3.116   5.403
 7059WAT      O21718   3.954   3.296   4.262
 7059WAT     H121719   3.928   3.392   4.262
 7059WAT     H221720   3.883   3.242   4.307
 7060WAT      O21721   3.964   2.953   4.610
 7060WAT     H121722   3.978   2.869   4.662
 7060WAT     H221723   3.909   3.017   4.665
 7061WAT      O21724   4.344   3.648   5.163
 7061WAT     H121725   4.252   3.631   5.198
 7061WAT     H221726   4.372   3.740   5.189
 7062WAT      O21727   5.318   1.976   5.204
 7062WAT     H121728   5.300   2.043   5.132
 7062WAT     H221729   5.315   2.022   5.293
 7063WAT      O21730   5.566   3.629   4.083
 7063WAT     H121731   5.620   3.600   4.163
 7063WAT     H221732   5.596   3.719   4.054
 7064WAT      O21733   3.751   3.458   3.841
 7064WAT     H121734   3.732   3.362   3.862
 7064WAT     H221735   3.718   3.516   3.916
 7065WAT      O21736   5.413   2.784   4.336
 7065WAT     H121737   5.508   2.755   4.344
 7065WAT     H221738   5.405   2.849   4.261
 7066WAT      O21739   5.365   2.970   4.156
 7066WAT     H121740   5.451   2.972   4.104
 7066WAT     H221741   5.379   3.017   4.244
 7067WAT      O21742   3.837   2.599   5.321
 7067WAT     H121743   3.925   2.586   5.366
 7067WAT     H221744   3.824   2.696   5.299
 7068WAT      O21745   4.337   3.227   4.450
 7068WAT     H121746   4.288   3.140   4.459
 7068WAT     H221747   4.314   3.270   4.363
 7069WAT      O21748   5.017   3.090   5.147
 7069WAT     H121749   5.054   3.017   5.089
 7069WAT     H221750   5.069   3.095   5.232
 7070WAT      O21751   4.533   1.866   4.226
 7070WAT     H121752   4.573   1.957   4.217
 7070WAT     H221753   4.433   1.874   4.232
 7071WAT      O21754   3.921   2.838   4.988
 7071WAT     H121755   4.010   2.793   4.974
 7071WAT     H221756   3.848   2.773   4.969
 7072WAT      O21757   5.249   2.861   3.914
 7072WAT     H121758   5.186   2.785   3.927
 7072WAT     H221759   5.297   2.879   4.000
 7073WAT      O21760   4.911   3.654   5.340
 7073WAT     H121761   4.935   3.714   5.264
 7073WAT     H221762   4.918   3.559   5.310
 7074WAT      O21763   4.041   2.113   5.525
 7074WAT     H121764   4.112   2.184   5.531
 7074WAT     H221765   3.953   2.152   5.553
 7075WAT      O21766   5.190   3.279   4.677
 7075WAT     H121767   5.131   3.285   4.757
 7075WAT     H221768   5.175   3.191   4.631
 7076WAT      O21769   5.391   3.576   4.296
 7076WAT     H121770   5.350   3.553   4.208
 7076WAT     H221771   5.373   3.502   4.361
 7077WAT      O21772   5.005   2.207   4.668
 7077WAT     H121773   4.919   2.157   4.655
 7077WAT     H221774   5.067   2.153   4.724
 7078WAT      O21775   5.300   3.524   4.031
 7078WAT     H121776   5.389   3.570   4.034
 7078WAT     H221777   5.279   3.500   3.936
 7079WAT      O21778   4.531   2.467   5.189
 7079WAT     H121779   4.484   2.464   5.278
 7079WAT     H221780   4.480   2.412   5.123
 7080WAT      O21781   5.118   2.331   5.398
 7080WAT     H121782   5.098   2.374   5.486
 7080WAT     H221783   5.196   2.269   5.407
 7081WAT      O21784   4.697   2.752   5.296
 7081WAT     H121785   4.743   2.668   5.267
 7081WAT     H221786   4.641   2.786   5.221
 7082WAT      O21787   4.715   2.272   4.966
 7082WAT     H121788   4.638   2.306   5.020
 7082WAT     H221789   4.681   2.221   4.887
 7083WAT      O21790   4.765   2.563   4.153
 7083WAT     H121791   4.791   2.559   4.249
 7083WAT     H221792   4.680   2.512   4.139
 7084WAT      O21793   3.854   3.683   5.295
 7084WAT     H121794   3.844   3.668   5.394
 7084WAT     H221795   3.768   3.719   5.259
 7085WAT      O21796   4.589   2.210   3.919
 7085WAT     H121797   4.648   2.273   3.870
 7085WAT     H221798   4.608   2.116   3.890
 7086WAT      O21799   5.443   2.447   5.555
 7086WAT     H121800   5.417   2.536   5.519
 7086WAT     H221801   5.441   2.379   5.482
 7087WAT      O21802   5.086   3.006   4.269
 7087WAT     H121803   5.169   2.977   4.221
 7087WAT     H221804   5.037   3.073   4.213
 7088WAT      O21805   4.274   2.058   4.609
 7088WAT     H121806   4.269   2.053   4.709
 7088WAT     H221807   4.276   2.154   4.580
 7089WAT      O21808   4.732   3.318   4.201
 7089WAT     H121809   4.686   3.390   4.149
 7089WAT     H221810   4.728   3.338   4.299
 7090WAT      O21811   4.075   3.663   4.577
 7090WAT     H121812   4.125   3.577   4.583
 7090WAT     H221813   4.140   3.740   4.574
 7091WAT      O21814   5.519   2.928   4.597
 7091WAT     H121815   5.457   2.913   4.521
 7091WAT     H221816   5.467   2.939   4.682
 7092WAT      O21817   4.951   3.412   5.230
 7092WAT     H121818   4.957   3.335   5.294
 7092WAT     H221819   4.899   3.386   5.150
 7093WAT      O21820   5.182   2.597   4.452
 7093WAT     H121821   5.177   2.532   4.527
 7093WAT     H221822   5.262   2.656   4.465
 7094WAT      O21823   4.185   3.128   5.451
 7094WAT     H121824   4.135   3.129   5.365
 7094WAT     H221825   4.122   3.110   5.527
 7095WAT      O21826   4.835   3.638   3.961
 7095WAT     H121827   4.775   3.576   4.011
 7095WAT     H221828   4.866   3.594   3.876
 7096WAT      O21829   3.926   2.147   5.222
 7096WAT     H121830   3.846   2.207   5.209
 7096WAT     H221831   3.916   2.098   5.308
 7097WAT      O21832   5.356   3.239   3.805
 7097WAT     H121833   5.324   3.333   3.795
 7097WAT     H221834   5.280   3.176   3.793
 7098WAT      O21835   4.188   3.605   4.047
 7098WAT     H121836   4.221   3.644   4.133
 7098WAT     H221837   4.264   3.598   3.982
 7099WAT      O21838   5.124   1.969   4.150
 7099WAT     H121839   5.100   1.932   4.060
 7099WAT     H221840   5.223   1.985   4.154
 7100WAT      O21841   3.973   3.647   4.965
 7100WAT     H121842   4.030   3.582   5.015
 7100WAT     H221843   3.957   3.614   4.872
 7101WAT      O21844   4.664   3.560   4.628
 7101WAT     H121845   4.744   3.503   4.649
 7101WAT     H221846   4.615   3.520   4.551
 7102WAT      O21847   5.271   2.084   5.453
 7102WAT     H121848   5.266   2.121   5.545
 7102WAT     H221849   5.199   2.015   5.441
 7103WAT      O21850   4.338   1.984   3.841
 7103WAT     H121851   4.436   1.962   3.848
 7103WAT     H221852   4.307   1.967   3.748
 7104WAT      O21853   4.505   2.126   5.473
 7104WAT     H121854   4.572   2.065   5.516
 7104WAT     H221855   4.432   2.145   5.538
 7105WAT      O21856   4.612   3.376   4.919
 7105WAT     H121857   4.589   3.351   4.825
 7105WAT     H221858   4.673   3.307   4.958
 7106WAT      O21859   5.075   2.452   5.157
 7106WAT     H121860   5.103   2.409   5.242
 7106WAT     H221861   5.100   2.548   5.158
 7107WAT      O21862   4.527   3.264   4.648
 7107WAT     H121863   4.617   3.278   4.606
 7107WAT     H221864   4.456   3.266   4.577
 7108WAT      O21865   4.646   2.365   4.623
 7108WAT     H121866   4.621   2.356   4.527
 7108WAT     H221867   4.694   2.283   4.654
 7109WAT      O21868   4.263   1.926   4.236
 7109WAT     H121869   4.182   1.927   4.294
 7109WAT     H221870   4.266   2.009   4.181
 7110WAT      O21871   5.158   3.050   3.765
 7110WAT     H121872   5.190   2.974   3.822
 7110WAT     H221873   5.066   3.077   3.795
 7111WAT      O21874   4.021   1.897   3.895
 7111WAT     H121875   4.070   1.981   3.874
 7111WAT     H221876   4.083   1.832   3.940
 7112WAT      O21877   4.659   2.098   4.204
 7112WAT     H121878   4.611   2.139   4.126
 7112WAT     H221879   4.758   2.096   4.185
 7113WAT      O21880   4.800   2.545   5.188
 7113WAT     H121881   4.720   2.484   5.191
 7113WAT     H221882   4.881   2.492   5.164
 7114WAT      O21883   4.951   3.432   4.517
 7114WAT     H121884   4.972   3.506   4.452
 7114WAT     H221885   5.019   3.432   4.590
 7115WAT      O21886   4.183   3.014   4.465
 7115WAT     H121887   4.112   2.987   4.530
 7115WAT     H221888   4.157   2.986   4.372
 7116WAT      O21889   4.995   3.659   4.315
 7116WAT     H121890   5.039   3.723   4.251
 7116WAT     H221891   4.945   3.711   4.385
 7117WAT      O21892   4.756   2.411   3.740
 7117WAT     H121893   4.715   2.493   3.701
 7117WAT     H221894   4.820   2.437   3.813
 7118WAT      O21895   3.802   2.418   5.110
 7118WAT     H121896   3.894   2.417   5.069
 7118WAT     H221897   3.796   2.492   5.177
 7119WAT      O21898   4.285   2.084   4.871
 7119WAT     H121899   4.323   2.000   4.908
 7119WAT     H221900   4.197   2.103   4.915
 7120WAT      O21901   4.590   2.316   4.366
 7120WAT     H121902   4.558   2.388   4.304
 7120WAT     H221903   4.614   2.235   4.313
 7121WAT      O21904   4.741   1.901   4.477
 7121WAT     H121905   4.669   1.906   4.408
 7121WAT     H221906   4.717   1.832   4.546
 7122WAT      O21907   5.153   3.035   4.591
 7122WAT     H121908   5.098   2.951   4.584
 7122WAT     H221909   5.179   3.064   4.499
 7123WAT      O21910   5.190   2.452   4.716
 7123WAT     H121911   5.160   2.357   4.723
 7123WAT     H221912   5.263   2.468   4.782
 7124WAT      O21913   5.581   2.695   4.101
 7124WAT     H121914   5.623   2.631   4.165
 7124WAT     H221915   5.543   2.644   4.023
 7125WAT      O21916   4.212   3.247   3.898
 7125WAT     H121917   4.125   3.232   3.945
 7125WAT     H221918   4.195   3.273   3.803
 7126WAT      O21919   5.388   3.142   4.381
 7126WAT     H121920   5.487   3.150   4.395
 7126WAT     H221921   5.343   3.226   4.412
 7127WAT      O21922   5.114   2.437   3.802
 7127WAT     H121923   5.060   2.416   3.883
 7127WAT     H221924   5.205   2.396   3.811
 7128WAT      O21925   4.251   2.118   4.052
 7128WAT     H121926   4.278   2.059   3.977
 7128WAT     H221927   4.251   2.213   4.021
 7129WAT      O21928   5.478   3.085   5.312
 7129WAT     H121929   5.569   3.046   5.299
 7129WAT     H221930   5.486   3.181   5.336
 7130WAT      O21931   4.788   3.209   5.064
 7130WAT     H121932   4.708   3.186   5.119
 7130WAT     H221933   4.871   3.183   5.113
 7131WAT      O21934   5.316   3.491   5.349
 7131WAT     H121935   5.343   3.525   5.259
 7131WAT     H221936   5.395   3.453   5.395
 7132WAT      O21937   4.835   3.057   4.824
 7132WAT     H121938   4.795   3.101   4.905
 7132WAT     H221939   4.794   3.094   4.741
 7133WAT      O21940   5.362   2.961   4.803
 7133WAT     H121941   5.367   3.042   4.862
 7133WAT     H221942   5.276   2.963   4.752
 7134WAT      O21943   4.639   1.951   5.126
 7134WAT     H121944   4.664   1.931   5.031
 7134WAT     H221945   4.711   2.007   5.168
 7135WAT      O21946   4.704   2.978   5.443
 7135WAT     H121947   4.605   2.984   5.453
 7135WAT     H221948   4.727   2.898   5.387
 7136WAT      O21949   4.134   2.675   4.975
 7136WAT     H121950   4.220   2.687   5.025
 7136WAT     H221951   4.092   2.588   5.002
 7137WAT      O21952   4.998   2.248   4.986
 7137WAT     H121953   5.019   2.322   5.050
 7137WAT     H221954   4.909   2.265   4.943
 7138WAT      O21955   3.788   3.426   5.055
 7138WAT     H121956   3.742   3.508   5.021
 7138WAT     H221957   3.886   3.445   5.064
 7139WAT      O21958   4.290   2.399   4.589
 7139WAT     H121959   4.302   2.465   4.515
 7139WAT     H221960   4.336   2.433   4.672
 7140WAT      O21961   4.976   3.210   4.112
 7140WAT     H121962   5.026   3.287   4.152
 7140WAT     H221963   4.881   3.212   4.144
 7141WAT      O21964   4.996   3.307   4.866
 7141WAT     H121965   5.043   3.320   4.953
 7141WAT     H221966   4.930   3.233   4.875
 7142WAT      O21967   5.306   2.501   4.196
 7142WAT     H121968   5.275   2.562   4.269
 7142WAT     H221969   5.356   2.553   4.127
 7143WAT      O21970   4.078   3.372   5.053
 7143WAT     H121971   4.057   3.328   4.966
 7143WAT     H221972   4.175   3.398   5.056
 7144WAT      O21973   4.126   2.613   5.322
 7144WAT     H121974   4.194   2.668   5.275
 7144WAT     H221975   4.166   2.525   5.349
 7145WAT      O21976   5.311   2.641   5.394
 7145WAT     H121977   5.219   2.679   5.389
 7145WAT     H221978   5.371   2.688   5.329
 7146WAT      O21979   4.737   1.967   5.494
 7146WAT     H121980   4.743   2.052   5.442
 7146WAT     H221981   4.769   1.891   5.437
 7147WAT      O21982   4.228   1.912   5.464
 7147WAT     H121983   4.186   1.855   5.394
 7147WAT     H221984   4.162   1.981   5.496
 7148WAT      O21985   4.297   2.732   4.753
 7148WAT     H121986   4.341   2.821   4.744
 7148WAT     H221987   4.234   2.732   4.830
 7149WAT      O21988   5.084   2.724   4.769
 7149WAT     H121989   5.009   2.724   4.703
 7149WAT     H221990   5.121   2.632   4.778
 7150WAT      O21991   4.933   2.387   3.999
 7150WAT     H121992   4.946   2.303   4.053
 7150WAT     H221993   4.904   2.461   4.059
 7151WAT      O21994   4.031   2.075   4.955
 7151WAT     H121995   4.008   2.112   5.045
 7151WAT     H221996   4.001   1.980   4.949
 7152WAT      O21997   3.761   3.172   5.006
 7152WAT     H121998   3.814   3.123   5.074
 7152WAT     H221999   3.783   3.270   5.011
 7153WAT      O22000   4.456   2.496   4.788
 7153WAT     H122001   4.515   2.470   4.712
 7153WAT     H222002   4.428   2.592   4.777
 7154WAT      O22003   5.452   2.797   5.578
 7154WAT     H122004   5.406   2.790   5.489
 7154WAT     H222005   5.390   2.841   5.644
 7155WAT      O22006   4.031   1.925   4.342
 7155WAT     H122007   4.020   2.019   4.375
 7155WAT     H222008   4.026   1.862   4.419
 7156WAT      O22009   5.346   2.229   4.098
 7156WAT     H122010   5.348   2.153   4.162
 7156WAT     H222011   5.298   2.306   4.138
 7157WAT      O22012   4.747   2.628   4.690
 7157WAT     H122013   4.762   2.649   4.786
 7157WAT     H222014   4.717   2.533   4.681
 7158WAT      O22015   4.704   3.435   5.424
 7158WAT     H122016   4.684   3.479   5.336
 7158WAT     H222017   4.743   3.344   5.408
 7159WAT      O22018   5.583   3.380   5.329
 7159WAT     H122019   5.597   3.407   5.234
 7159WAT     H222020   5.666   3.402   5.382
 7160WAT      O22021   4.074   2.760   5.528
 7160WAT     H122022   4.150   2.804   5.576
 7160WAT     H222023   4.109   2.713   5.446
 7161WAT      O22024   5.264   2.136   3.849
 7161WAT     H122025   5.203   2.061   3.872
 7161WAT     H222026   5.286   2.188   3.932
 7162WAT      O22027   5.027   2.700   3.766
 7162WAT     H122028   5.061   2.607   3.781
 7162WAT     H222029   5.045   2.727   3.671
 7163WAT      O22030   4.792   3.195   4.573
 7163WAT     H122031   4.799   3.111   4.518
 7163WAT     H222032   4.854   3.264   4.537
 7164WAT      O22033   4.043   2.672   4.673
 7164WAT     H122034   4.136   2.708   4.678
 7164WAT     H222035   4.037   2.587   4.725
 7165WAT      O22036   4.063   2.371   4.730
 7165WAT     H122037   4.011   2.288   4.713
 7165WAT     H222038   4.140   2.376   4.666
 7166WAT      O22039   4.862   2.242   5.402
 7166WAT     H122040   4.817   2.305   5.466
 7166WAT     H222041   4.955   2.273   5.385
 7167WAT      O22042   4.884   2.069   5.201
 7167WAT     H122043   4.884   2.133   5.278
 7167WAT     H222044   4.912   2.117   5.118
 7168WAT      O22045   3.732   3.188   3.924
 7168WAT     H122046   3.639   3.209   3.893
 7168WAT     H222047   3.742   3.089   3.937
 7169WAT      O22048   3.812   3.663   4.651
 7169WAT     H122049   3.770   3.577   4.624
 7169WAT     H222050   3.906   3.666   4.617
 7170WAT      O22051   4.228   3.430   4.634
 7170WAT     H122052   4.294   3.504   4.643
 7170WAT     H222053   4.272   3.351   4.592
 7171WAT      O22054   4.726   2.658   4.962
 7171WAT     H122055   4.767   2.626   5.048
 7171WAT     H222056   4.630   2.631   4.959
 7172WAT      O22057   3.913   2.382   5.446
 7172WAT     H122058   3.972   2.342   5.376
 7172WAT     H222059   3.855   2.453   5.405
 7173WAT      O22060   5.093   2.812   5.384
 7173WAT     H122061   5.132   2.901   5.404
 7173WAT     H222062   5.103   2.792   5.287
 7174WAT      O22063   4.539   2.434   4.049
 7174WAT     H122064   4.546   2.345   4.003
 7174WAT     H222065   4.445   2.468   4.041
 7175WAT      O22066   5.381   2.466   4.930
 7175WAT     H122067   5.343   2.397   4.992
 7175WAT     H222068   5.463   2.430   4.886
 7176WAT      O22069   3.976   3.426   5.468
 7176WAT     H122070   3.946   3.483   5.544
 7176WAT     H222071   3.969   3.329   5.494
 7177WAT      O22072   4.395   2.326   4.993
 7177WAT     H122073   4.361   2.237   4.963
 7177WAT     H222074   4.421   2.380   4.913
 7178WAT      O22075   4.654   3.540   5.189
 7178WAT     H122076   4.630   3.522   5.094
 7178WAT     H222077   4.684   3.634   5.199
 7179WAT      O22078   4.197   2.362   3.915
 7179WAT     H122079   4.258   2.442   3.919
 7179WAT     H222080   4.102   2.393   3.922
 7180WAT      O22081   3.883   2.999   5.190
 7180WAT     H122082   3.905   2.938   5.266
 7180WAT     H222083   3.893   2.950   5.104
 7181WAT      O22084   5.071   2.921   4.958
 7181WAT     H122085   5.095   2.858   4.884
 7181WAT     H222086   4.981   2.961   4.940
 7182WAT      O22087   5.026   2.717   4.033
 7182WAT     H122088   4.940   2.686   4.075
 7182WAT     H222089   5.022   2.703   3.934
 7183WAT      O22090   5.483   3.609   4.878
 7183WAT     H122091   5.544   3.639   4.805
 7183WAT     H222092   5.445   3.520   4.856
 7184WAT      O22093   4.976   3.593   4.852
 7184WAT     H122094   5.060   3.598   4.798
 7184WAT     H222095   4.953   3.497   4.870
 7185WAT      O22096   3.807   3.120   4.746
 7185WAT     H122097   3.802   3.119   4.846
 7185WAT     H222098   3.724   3.079   4.708
 7186WAT      O22099   4.412   3.524   5.440
 7186WAT     H122100   4.356   3.605   5.449
 7186WAT     H222101   4.464   3.528   5.354
 7187WAT      O22102   5.450   1.997   4.247
 7187WAT     H122103   5.523   1.980   4.180
 7187WAT     H222104   5.419   1.910   4.285
 7188WAT      O22105   5.112   3.435   4.201
 7188WAT     H122106   5.179   3.447   4.127
 7188WAT     H222107   5.072   3.524   4.224
 7189WAT      O22108   3.854   3.656   5.575
 7189WAT     H122109   3.813   3.582   5.628
 7189WAT     H222110   3.918   3.707   5.633
 7190WAT      O22111   5.004   2.789   4.396
 7190WAT     H122112   5.064   2.708   4.398
 7190WAT     H222113   5.044   2.858   4.336
 7191WAT      O22114   4.554   3.135   5.146
 7191WAT     H122115   4.549   3.168   5.241
 7191WAT     H222116   4.468   3.154   5.100
 7192WAT      O22117   4.396   3.478   3.878
 7192WAT     H122118   4.405   3.488   3.779
 7192WAT     H222119   4.356   3.389   3.899
 7193WAT      O22120   5.374   3.582   5.118
 7193WAT     H122121   5.427   3.592   5.034
 7193WAT     H222122   5.347   3.672   5.152
 7194WAT      O22123   5.565   2.037   4.687
 7194WAT     H122124   5.604   1.952   4.651
 7194WAT     H222125   5.467   2.039   4.668
 7195WAT      O22126   4.918   3.474   3.755
 7195WAT     H122127   4.924   3.381   3.792
 7195WAT     H222128   4.859   3.474   3.675
 7196WAT      O22129   4.546   2.864   5.096
 7196WAT     H122130   4.586   2.863   5.004
 7196WAT     H222131   4.556   2.956   5.136
 7197WAT      O22132   5.228   3.469   3.768
 7197WAT     H122133   5.136   3.506   3.775
 7197WAT     H222134   5.266   3.489   3.678
 7198WAT      O22135   4.096   3.150   5.214
 7198WAT     H122136   4.083   3.243   5.180
 7198WAT     H222137   4.012   3.098   5.201
 7199WAT      O22138   5.338   3.154   5.013
 7199WAT     H122139   5.398   3.157   5.093
 7199WAT     H222140   5.263   3.218   5.026
 7200WAT      O22141   4.763   2.960   4.420
 7200WAT     H122142   4.693   2.913   4.474
 7200WAT     H222143   4.822   2.892   4.377
 7201WAT      O22144   4.738   2.098   4.695
 7201WAT     H122145   4.730   2.062   4.602
 7201WAT     H222146   4.736   2.022   4.760
 7202WAT      O22147   4.314   3.349   4.215
 7202WAT     H122148   4.356   3.291   4.145
 7202WAT     H222149   4.270   3.428   4.171
 7203WAT      O22150   5.433   2.247   5.105
 7203WAT     H122151   5.506   2.316   5.109
 7203WAT     H222152   5.461   2.172   5.046
 7204WAT      O22153   3.979   3.210   4.014
 7204WAT     H122154   3.883   3.211   3.987
 7204WAT     H222155   3.991   3.263   4.098
 7205WAT      O22156   3.829   2.875   5.450
 7205WAT     H122157   3.752   2.842   5.504
 7205WAT     H222158   3.914   2.845   5.492
 7206WAT      O22159   4.396   2.065   5.213
 7206WAT     H122160   4.486   2.049   5.173
 7206WAT     H222161   4.404   2.070   5.312
 7207WAT      O22162   3.799   2.207   3.757
 7207WAT     H122163   3.707   2.179   3.728
 7207WAT     H222164   3.830   2.284   3.701
 7208WAT      O22165   5.164   2.718   5.122
 7208WAT     H122166   5.107   2.770   5.059
 7208WAT     H222167   5.260   2.730   5.098
 7209WAT      O22168   3.796   2.028   4.042
 7209WAT     H122169   3.779   2.111   3.988
 7209WAT     H222170   3.886   1.991   4.020
 7210WAT      O22171   4.907   3.197   3.843
 7210WAT     H122172   4.808   3.186   3.845
 7210WAT     H222173   4.941   3.212   3.936
 7211WAT      O22174   4.337   2.704   5.155
 7211WAT     H122175   4.393   2.785   5.138
 7211WAT     H222176   4.396   2.624   5.158
 7212WAT      O22177   5.217   3.629   4.683
 7212WAT     H122178   5.250   3.693   4.614
 7212WAT     H222179   5.283   3.623   4.758
 7213WAT      O22180   4.440   2.427   5.432
 7213WAT     H122181   4.459   2.492   5.506
 7213WAT     H222182   4.500   2.347   5.441
 7214WAT      O22183   5.174   3.082   5.357
 7214WAT     H122184   5.165   3.072   5.456
 7214WAT     H222185   5.270   3.075   5.331
 7215WAT      O22186   4.114   3.603   5.284
 7215WAT     H122187   4.023   3.644   5.282
 7215WAT     H222188   4.107   3.509   5.316
 7216WAT      O22189   5.398   2.745   4.978
 7216WAT     H122190   5.371   2.656   4.941
 7216WAT     H222191   5.399   2.813   4.905
 7217WAT      O22192   4.949   2.187   4.173
 7217WAT     H122193   5.014   2.113   4.162
 7217WAT     H222194   4.969   2.237   4.257
 7218WAT      O22195   5.501   2.204   5.366
 7218WAT     H122196   5.484   2.235   5.272
 7218WAT     H222197   5.417   2.167   5.404
 7219WAT      O22198   5.454   2.796   5.241
 7219WAT     H122199   5.492   2.887   5.256
 7219WAT     H222200   5.446   2.779   5.142
 7220WAT      O22201   4.583   3.236   3.740
 7220WAT     H122202   4.537   3.251   3.828
 7220WAT     H222203   4.627   3.321   3.710
 7221WAT      O22204   4.385   3.652   4.677
 7221WAT     H122205   4.339   3.740   4.664
 7221WAT     H222206   4.484   3.664   4.670
 7222WAT      O22207   4.583   2.818   4.585
 7222WAT     H122208   4.637   2.749   4.633
 7222WAT     H222209   4.551   2.887   4.651
 7223WAT      O22210   5.585   3.431   4.575
 7223WAT     H122211   5.514   3.419   4.505
 7223WAT     H222212   5.586   3.352   4.635
 7224WAT      O22213   3.945   3.176   5.568
 7224WAT     H122214   3.880   3.103   5.547
 7224WAT     H222215   3.949   3.190   5.666
 7225WAT      O22216   3.803   3.102   4.377
 7225WAT     H122217   3.802   3.055   4.465
 7225WAT     H222218   3.885   3.074   4.326
 7226WAT      O22219   4.396   3.253   5.348
 7226WAT     H122220   4.318   3.203   5.386
 7226WAT     H222221   4.393   3.348   5.379
 7227WAT      O22222   5.548   2.054   4.951
 7227WAT     H122223   5.544   1.964   4.995
 7227WAT     H222224   5.551   2.043   4.852
 7228WAT      O22225   4.152   2.286   4.244
 7228WAT     H122226   4.182   2.214   4.182
 7228WAT     H222227   4.113   2.246   4.327
 7229WAT      O22228   5.429   3.349   4.828
 7229WAT     H122229   5.336   3.324   4.801
 7229WAT     H222230   5.455   3.299   4.910
 7230WAT      O22231   4.041   2.409   5.004
 7230WAT     H122232   4.079   2.350   5.076
 7230WAT     H222233   4.081   2.383   4.916
 7231WAT      O22234   4.536   3.448   4.411
 7231WAT     H122235   4.568   3.458   4.317
 7231WAT     H222236   4.457   3.386   4.413
 7232WAT      O22237   5.148   2.076   4.836
 7232WAT     H122238   5.200   2.011   4.891
 7232WAT     H222239   5.099   2.139   4.897
 7233WAT      O22240   4.725   1.896   4.878
 7233WAT     H122241   4.662   1.824   4.847
 7233WAT     H222242   4.818   1.860   4.878
 7234WAT      O22243   4.342   3.429   5.008
 7234WAT     H122244   4.337   3.511   5.065
 7234WAT     H222245   4.431   3.426   4.963
 7235WAT      O22246   5.076   1.914   3.892
 7235WAT     H122247   5.111   1.873   3.808
 7235WAT     H222248   4.986   1.876   3.912
 7236WAT      O22249   5.024   2.315   4.415
 7236WAT     H122250   4.965   2.395   4.419
 7236WAT     H222251   5.039   2.280   4.508
 7237WAT      O22252   5.317   2.083   4.606
 7237WAT     H122253   5.233   2.082   4.660
 7237WAT     H222254   5.319   2.166   4.550
 7238WAT      O22255   4.599   3.508   4.061
 7238WAT     H122256   4.522   3.473   4.007
 7238WAT     H222257   4.567   3.579   4.123
 7239WAT      O22258   3.954   2.490   5.699
 7239WAT     H122259   3.861   2.488   5.736
 7239WAT     H222260   3.955   2.451   5.607
 7240WAT      O22261   3.949   2.137   6.582
 7240WAT     H122262   3.984   2.120   6.674
 7240WAT     H222263   3.861   2.092   6.570
 7241WAT      O22264   3.743   2.230   6.233
 7241WAT     H122265   3.661   2.273   6.272
 7241WAT     H222266   3.715   2.157   6.170
 7242WAT      O22267   4.293   3.137   6.751
 7242WAT     H122268   4.200   3.130   6.714
 7242WAT     H222269   4.304   3.226   6.795
 7243WAT      O22270   5.279   3.373   6.289
 7243WAT     H122271   5.222   3.357   6.370
 7243WAT     H222272   5.220   3.383   6.209
 7244WAT      O22273   4.859   2.565   6.303
 7244WAT     H122274   4.916   2.643   6.278
 7244WAT     H222275   4.799   2.591   6.379
 7245WAT      O22276   5.479   2.469   5.817
 7245WAT     H122277   5.467   2.456   5.718
 7245WAT     H222278   5.449   2.388   5.866
 7246WAT      O22279   4.492   3.006   6.609
 7246WAT     H122280   4.414   3.023   6.669
 7246WAT     H222281   4.526   3.093   6.573
 7247WAT      O22282   4.409   2.874   6.251
 7247WAT     H122283   4.478   2.858   6.321
 7247WAT     H222284   4.336   2.931   6.289
 7248WAT      O22285   4.059   3.297   6.647
 7248WAT     H122286   3.981   3.266   6.594
 7248WAT     H222287   4.117   3.355   6.590
 7249WAT      O22288   5.327   2.309   6.323
 7249WAT     H122289   5.253   2.355   6.273
 7249WAT     H222290   5.378   2.377   6.376
 7250WAT      O22291   3.955   3.575   6.069
 7250WAT     H122292   3.989   3.652   6.123
 7250WAT     H222293   3.999   3.575   5.979
 7251WAT      O22294   3.954   3.296   6.124
 7251WAT     H122295   3.928   3.392   6.124
 7251WAT     H222296   3.883   3.242   6.169
 7252WAT      O22297   3.964   2.953   6.472
 7252WAT     H122298   3.978   2.869   6.524
 7252WAT     H222299   3.909   3.017   6.527
 7253WAT      O22300   4.344   3.648   7.025
 7253WAT     H122301   4.252   3.631   7.060
 7253WAT     H222302   4.372   3.740   7.051
 7254WAT      O22303   4.330   2.826   5.709
 7254WAT     H122304   4.337   2.910   5.655
 7254WAT     H222305   4.376   2.839   5.797
 7255WAT      O22306   3.846   2.505   6.149
 7255WAT     H122307   3.801   2.417   6.166
 7255WAT     H222308   3.845   2.559   6.233
 7256WAT      O22309   5.566   3.629   5.945
 7256WAT     H122310   5.620   3.600   6.025
 7256WAT     H222311   5.596   3.719   5.916
 7257WAT      O22312   3.751   3.458   5.703
 7257WAT     H122313   3.732   3.362   5.724
 7257WAT     H222314   3.718   3.516   5.778
 7258WAT      O22315   5.413   2.784   6.198
 7258WAT     H122316   5.508   2.755   6.206
 7258WAT     H222317   5.405   2.849   6.123
 7259WAT      O22318   5.365   2.970   6.018
 7259WAT     H122319   5.451   2.972   5.966
 7259WAT     H222320   5.379   3.017   6.106
 7260WAT      O22321   4.337   3.227   6.312
 7260WAT     H122322   4.288   3.140   6.321
 7260WAT     H222323   4.314   3.270   6.225
 7261WAT      O22324   4.533   1.866   6.088
 7261WAT     H122325   4.573   1.957   6.079
 7261WAT     H222326   4.433   1.874   6.094
 7262WAT      O22327   3.921   2.838   6.850
 7262WAT     H122328   4.010   2.793   6.836
 7262WAT     H222329   3.848   2.773   6.831
 7263WAT      O22330   5.249   2.861   5.776
 7263WAT     H122331   5.186   2.785   5.789
 7263WAT     H222332   5.297   2.879   5.862
 7264WAT      O22333   5.190   3.279   6.539
 7264WAT     H122334   5.131   3.285   6.619
 7264WAT     H222335   5.175   3.191   6.493
 7265WAT      O22336   5.391   3.576   6.158
 7265WAT     H122337   5.350   3.553   6.070
 7265WAT     H222338   5.373   3.502   6.223
 7266WAT      O22339   4.322   2.591   5.856
 7266WAT     H122340   4.346   2.660   5.788
 7266WAT     H222341   4.244   2.624   5.910
 7267WAT      O22342   5.005   2.207   6.530
 7267WAT     H122343   4.919   2.157   6.517
 7267WAT     H222344   5.067   2.153   6.586
 7268WAT      O22345   5.300   3.524   5.893
 7268WAT     H122346   5.389   3.570   5.896
 7268WAT     H222347   5.279   3.500   5.798
 7269WAT      O22348   4.531   2.467   7.051
 7269WAT     H122349   4.484   2.464   7.140
 7269WAT     H222350   4.480   2.412   6.985
 7270WAT      O22351   4.715   2.272   6.828
 7270WAT     H122352   4.638   2.306   6.882
 7270WAT     H222353   4.681   2.221   6.749
 7271WAT      O22354   4.765   2.563   6.015
 7271WAT     H122355   4.791   2.559   6.111
 7271WAT     H222356   4.680   2.512   6.001
 7272WAT      O22357   3.800   2.673   6.375
 7272WAT     H122358   3.899   2.661   6.384
 7272WAT     H222359   3.776   2.768   6.396
 7273WAT      O22360   3.854   3.683   7.157
 7273WAT     H122361   3.844   3.668   7.256
 7273WAT     H222362   3.768   3.719   7.121
 7274WAT      O22363   4.589   2.210   5.781
 7274WAT     H122364   4.648   2.273   5.732
 7274WAT     H222365   4.608   2.116   5.752
 7275WAT      O22366   5.086   3.006   6.131
 7275WAT     H122367   5.169   2.977   6.083
 7275WAT     H222368   5.037   3.073   6.075
 7276WAT      O22369   4.274   2.058   6.471
 7276WAT     H122370   4.269   2.053   6.571
 7276WAT     H222371   4.276   2.154   6.442
 7277WAT      O22372   4.732   3.318   6.063
 7277WAT     H122373   4.686   3.390   6.011
 7277WAT     H222374   4.728   3.338   6.161
 7278WAT      O22375   4.075   3.663   6.439
 7278WAT     H122376   4.125   3.577   6.445
 7278WAT     H222377   4.140   3.740   6.436
 7279WAT      O22378   5.519   2.928   6.459
 7279WAT     H122379   5.457   2.913   6.383
 7279WAT     H222380   5.467   2.939   6.544
 7280WAT      O22381   4.045   2.805   5.828
 7280WAT     H122382   4.127   2.844   5.786
 7280WAT     H222383   4.018   2.723   5.779
 7281WAT      O22384   5.182   2.597   6.314
 7281WAT     H122385   5.177   2.532   6.389
 7281WAT     H222386   5.262   2.656   6.327
 7282WAT      O22387   4.835   3.638   5.823
 7282WAT     H122388   4.775   3.576   5.873
 7282WAT     H222389   4.866   3.594   5.738
 7283WAT      O22390   5.356   3.239   5.667
 7283WAT     H122391   5.324   3.333   5.657
 7283WAT     H222392   5.280   3.176   5.655
 7284WAT      O22393   4.188   3.605   5.909
 7284WAT     H122394   4.221   3.644   5.995
 7284WAT     H222395   4.264   3.598   5.844
 7285WAT      O22396   5.124   1.969   6.012
 7285WAT     H122397   5.100   1.932   5.922
 7285WAT     H222398   5.223   1.985   6.016
 7286WAT      O22399   3.973   3.647   6.827
 7286WAT     H122400   4.030   3.582   6.877
 7286WAT     H222401   3.957   3.614   6.734
 7287WAT      O22402   4.664   3.560   6.490
 7287WAT     H122403   4.744   3.503   6.511
 7287WAT     H222404   4.615   3.520   6.413
 7288WAT      O22405   4.106   2.562   6.066
 7288WAT     H122406   4.151   2.472   6.063
 7288WAT     H222407   4.012   2.551   6.099
 7289WAT      O22408   4.338   1.984   5.703
 7289WAT     H122409   4.436   1.962   5.710
 7289WAT     H222410   4.307   1.967   5.610
 7290WAT      O22411   4.612   3.376   6.781
 7290WAT     H122412   4.589   3.351   6.687
 7290WAT     H222413   4.673   3.307   6.820
 7291WAT      O22414   4.527   3.264   6.510
 7291WAT     H122415   4.617   3.278   6.468
 7291WAT     H222416   4.456   3.266   6.439
 7292WAT      O22417   4.646   2.365   6.485
 7292WAT     H122418   4.621   2.356   6.389
 7292WAT     H222419   4.694   2.283   6.516
 7293WAT      O22420   4.263   1.926   6.098
 7293WAT     H122421   4.182   1.927   6.156
 7293WAT     H222422   4.266   2.009   6.043
 7294WAT      O22423   5.158   3.050   5.627
 7294WAT     H122424   5.190   2.974   5.684
 7294WAT     H222425   5.066   3.077   5.657
 7295WAT      O22426   4.021   1.897   5.757
 7295WAT     H122427   4.070   1.981   5.736
 7295WAT     H222428   4.083   1.832   5.802
 7296WAT      O22429   4.659   2.098   6.066
 7296WAT     H122430   4.611   2.139   5.988
 7296WAT     H222431   4.758   2.096   6.047
 7297WAT      O22432   4.951   3.432   6.379
 7297WAT     H122433   4.972   3.506   6.314
 7297WAT     H222434   5.019   3.432   6.452
 7298WAT      O22435   4.183   3.014   6.327
 7298WAT     H122436   4.112   2.987   6.392
 7298WAT     H222437   4.157   2.986   6.234
 7299WAT      O22438   4.995   3.659   6.177
 7299WAT     H122439   5.039   3.723   6.113
 7299WAT     H222440   4.945   3.711   6.247
 7300WAT      O22441   4.756   2.411   5.602
 7300WAT     H122442   4.715   2.493   5.563
 7300WAT     H222443   4.820   2.437   5.675
 7301WAT      O22444   4.285   2.084   6.733
 7301WAT     H122445   4.323   2.000   6.770
 7301WAT     H222446   4.197   2.103   6.777
 7302WAT      O22447   4.590   2.316   6.228
 7302WAT     H122448   4.558   2.388   6.166
 7302WAT     H222449   4.614   2.235   6.175
 7303WAT      O22450   4.741   1.901   6.339
 7303WAT     H122451   4.669   1.906   6.270
 7303WAT     H222452   4.717   1.832   6.408
 7304WAT      O22453   5.153   3.035   6.453
 7304WAT     H122454   5.098   2.951   6.446
 7304WAT     H222455   5.179   3.064   6.361
 7305WAT      O22456   5.190   2.452   6.578
 7305WAT     H122457   5.160   2.357   6.585
 7305WAT     H222458   5.263   2.468   6.644
 7306WAT      O22459   5.581   2.695   5.963
 7306WAT     H122460   5.623   2.631   6.027
 7306WAT     H222461   5.543   2.644   5.885
 7307WAT      O22462   4.212   3.247   5.760
 7307WAT     H122463   4.125   3.232   5.807
 7307WAT     H222464   4.195   3.273   5.665
 7308WAT      O22465   5.388   3.142   6.243
 7308WAT     H122466   5.487   3.150   6.257
 7308WAT     H222467   5.343   3.226   6.274
 7309WAT      O22468   5.114   2.437   5.664
 7309WAT     H122469   5.060   2.416   5.745
 7309WAT     H222470   5.205   2.396   5.673
 7310WAT      O22471   4.251   2.118   5.914
 7310WAT     H122472   4.278   2.059   5.839
 7310WAT     H222473   4.251   2.213   5.883
 7311WAT      O22474   5.478   3.085   7.174
 7311WAT     H122475   5.569   3.046   7.161
 7311WAT     H222476   5.486   3.181   7.198
 7312WAT      O22477   4.835   3.057   6.686
 7312WAT     H122478   4.795   3.101   6.767
 7312WAT     H222479   4.794   3.094   6.603
 7313WAT      O22480   5.362   2.961   6.665
 7313WAT     H122481   5.367   3.042   6.724
 7313WAT     H222482   5.276   2.963   6.614
 7314WAT      O22483   4.429   2.912   5.954
 7314WAT     H122484   4.415   2.919   6.053
 7314WAT     H222485   4.513   2.861   5.936
 7315WAT      O22486   4.134   2.675   6.837
 7315WAT     H122487   4.220   2.687   6.887
 7315WAT     H222488   4.092   2.588   6.864
 7316WAT      O22489   4.998   2.248   6.848
 7316WAT     H122490   5.019   2.322   6.912
 7316WAT     H222491   4.909   2.265   6.805
 7317WAT      O22492   3.788   3.426   6.917
 7317WAT     H122493   3.742   3.508   6.883
 7317WAT     H222494   3.886   3.445   6.926
 7318WAT      O22495   4.091   2.962   6.087
 7318WAT     H122496   4.084   3.045   6.031
 7318WAT     H222497   4.095   2.882   6.027
 7319WAT      O22498   4.290   2.399   6.451
 7319WAT     H122499   4.302   2.465   6.377
 7319WAT     H222500   4.336   2.433   6.534
 7320WAT      O22501   4.976   3.210   5.974
 7320WAT     H122502   5.026   3.287   6.014
 7320WAT     H222503   4.881   3.212   6.006
 7321WAT      O22504   4.996   3.307   6.728
 7321WAT     H122505   5.043   3.320   6.815
 7321WAT     H222506   4.930   3.233   6.737
 7322WAT      O22507   5.306   2.501   6.058
 7322WAT     H122508   5.275   2.562   6.131
 7322WAT     H222509   5.356   2.553   5.989
 7323WAT      O22510   4.078   3.372   6.915
 7323WAT     H122511   4.057   3.328   6.828
 7323WAT     H222512   4.175   3.398   6.918
 7324WAT      O22513   4.297   2.732   6.615
 7324WAT     H122514   4.341   2.821   6.606
 7324WAT     H222515   4.234   2.732   6.692
 7325WAT      O22516   5.084   2.724   6.631
 7325WAT     H122517   5.009   2.724   6.565
 7325WAT     H222518   5.121   2.632   6.640
 7326WAT      O22519   4.933   2.387   5.861
 7326WAT     H122520   4.946   2.303   5.915
 7326WAT     H222521   4.904   2.461   5.921
 7327WAT      O22522   4.031   2.075   6.817
 7327WAT     H122523   4.008   2.112   6.907
 7327WAT     H222524   4.001   1.980   6.811
 7328WAT      O22525   3.761   3.172   6.868
 7328WAT     H122526   3.814   3.123   6.936
 7328WAT     H222527   3.783   3.270   6.873
 7329WAT      O22528   4.456   2.496   6.650
 7329WAT     H122529   4.515   2.470   6.574
 7329WAT     H222530   4.428   2.592   6.639
 7330WAT      O22531   4.031   1.925   6.204
 7330WAT     H122532   4.020   2.019   6.237
 7330WAT     H222533   4.026   1.862   6.281
 7331WAT      O22534   5.346   2.229   5.960
 7331WAT     H122535   5.348   2.153   6.024
 7331WAT     H222536   5.298   2.306   6.000
 7332WAT      O22537   4.747   2.628   6.552
 7332WAT     H122538   4.762   2.649   6.648
 7332WAT     H222539   4.717   2.533   6.543
 7333WAT      O22540   5.264   2.136   5.711
 7333WAT     H122541   5.203   2.061   5.734
 7333WAT     H222542   5.286   2.188   5.794
 7334WAT      O22543   5.027   2.700   5.628
 7334WAT     H122544   5.061   2.607   5.643
 7334WAT     H222545   5.045   2.727   5.533
 7335WAT      O22546   4.792   3.195   6.435
 7335WAT     H122547   4.799   3.111   6.380
 7335WAT     H222548   4.854   3.264   6.399
 7336WAT      O22549   4.043   2.672   6.535
 7336WAT     H122550   4.136   2.708   6.540
 7336WAT     H222551   4.037   2.587   6.587
 7337WAT      O22552   4.063   2.371   6.592
 7337WAT     H122553   4.011   2.288   6.575
 7337WAT     H222554   4.140   2.376   6.528
 7338WAT      O22555   4.884   2.069   7.063
 7338WAT     H122556   4.884   2.133   7.140
 7338WAT     H222557   4.912   2.117   6.980
 7339WAT      O22558   3.732   3.188   5.786
 7339WAT     H122559   3.639   3.209   5.755
 7339WAT     H222560   3.742   3.089   5.799
 7340WAT      O22561   3.812   3.663   6.513
 7340WAT     H122562   3.770   3.577   6.486
 7340WAT     H222563   3.906   3.666   6.479
 7341WAT      O22564   4.228   3.430   6.496
 7341WAT     H122565   4.294   3.504   6.505
 7341WAT     H222566   4.272   3.351   6.454
 7342WAT      O22567   4.726   2.658   6.824
 7342WAT     H122568   4.767   2.626   6.910
 7342WAT     H222569   4.630   2.631   6.821
 7343WAT      O22570   3.764   2.406   6.700
 7343WAT     H122571   3.849   2.373   6.659
 7343WAT     H222572   3.777   2.421   6.798
 7344WAT      O22573   4.539   2.434   5.911
 7344WAT     H122574   4.546   2.345   5.865
 7344WAT     H222575   4.445   2.468   5.903
 7345WAT      O22576   5.381   2.466   6.792
 7345WAT     H122577   5.343   2.397   6.854
 7345WAT     H222578   5.463   2.430   6.748
 7346WAT      O22579   4.395   2.326   6.855
 7346WAT     H122580   4.361   2.237   6.825
 7346WAT     H222581   4.421   2.380   6.775
 7347WAT      O22582   4.654   3.540   7.051
 7347WAT     H122583   4.630   3.522   6.956
 7347WAT     H222584   4.684   3.634   7.061
 7348WAT      O22585   4.197   2.362   5.777
 7348WAT     H122586   4.258   2.442   5.781
 7348WAT     H222587   4.102   2.393   5.784
 7349WAT      O22588   3.883   2.999   7.052
 7349WAT     H122589   3.905   2.938   7.128
 7349WAT     H222590   3.893   2.950   6.966
 7350WAT      O22591   5.071   2.921   6.820
 7350WAT     H122592   5.095   2.858   6.746
 7350WAT     H222593   4.981   2.961   6.802
 7351WAT      O22594   5.026   2.717   5.895
 7351WAT     H122595   4.940   2.686   5.937
 7351WAT     H222596   5.022   2.703   5.796
 7352WAT      O22597   5.483   3.609   6.740
 7352WAT     H122598   5.544   3.639   6.667
 7352WAT     H222599   5.445   3.520   6.718
 7353WAT      O22600   4.976   3.593   6.714
 7353WAT     H122601   5.060   3.598   6.660
 7353WAT     H222602   4.953   3.497   6.732
 7354WAT      O22603   3.807   3.120   6.608
 7354WAT     H122604   3.802   3.119   6.708
 7354WAT     H222605   3.724   3.079   6.570
 7355WAT      O22606   5.450   1.997   6.109
 7355WAT     H122607   5.523   1.980   6.042
 7355WAT     H222608   5.419   1.910   6.147
 7356WAT      O22609   5.112   3.435   6.063
 7356WAT     H122610   5.179   3.447   5.989
 7356WAT     H222611   5.072   3.524   6.086
 7357WAT      O22612   5.004   2.789   6.258
 7357WAT     H122613   5.064   2.708   6.260
 7357WAT     H222614   5.044   2.858   6.198
 7358WAT      O22615   4.396   3.478   5.740
 7358WAT     H122616   4.405   3.488   5.641
 7358WAT     H222617   4.356   3.389   5.761
 7359WAT      O22618   5.565   2.037   6.549
 7359WAT     H122619   5.604   1.952   6.513
 7359WAT     H222620   5.467   2.039   6.530
 7360WAT      O22621   3.987   2.188   6.306
 7360WAT     H122622   3.908   2.239   6.272
 7360WAT     H222623   3.978   2.173   6.404
 7361WAT      O22624   4.918   3.474   5.617
 7361WAT     H122625   4.924   3.381   5.654
 7361WAT     H222626   4.859   3.474   5.537
 7362WAT      O22627   4.546   2.864   6.958
 7362WAT     H122628   4.586   2.863   6.866
 7362WAT     H222629   4.556   2.956   6.998
 7363WAT      O22630   4.640   2.772   5.877
 7363WAT     H122631   4.703   2.810   5.809
 7363WAT     H222632   4.680   2.689   5.916
 7364WAT      O22633   5.228   3.469   5.630
 7364WAT     H122634   5.136   3.506   5.637
 7364WAT     H222635   5.266   3.489   5.540
 7365WAT      O22636   5.338   3.154   6.875
 7365WAT     H122637   5.398   3.157   6.955
 7365WAT     H222638   5.263   3.218   6.888
 7366WAT      O22639   4.763   2.960   6.282
 7366WAT     H122640   4.693   2.913   6.336
 7366WAT     H222641   4.822   2.892   6.239
 7367WAT      O22642   4.738   2.098   6.557
 7367WAT     H122643   4.730   2.062   6.464
 7367WAT     H222644   4.736   2.022   6.622
 7368WAT      O22645   4.314   3.349   6.077
 7368WAT     H122646   4.356   3.291   6.007
 7368WAT     H222647   4.270   3.428   6.033
 7369WAT      O22648   5.433   2.247   6.967
 7369WAT     H122649   5.506   2.316   6.971
 7369WAT     H222650   5.461   2.172   6.908
 7370WAT      O22651   3.979   3.210   5.876
 7370WAT     H122652   3.883   3.211   5.849
 7370WAT     H222653   3.991   3.263   5.960
 7371WAT      O22654   4.396   2.065   7.075
 7371WAT     H122655   4.486   2.049   7.035
 7371WAT     H222656   4.404   2.070   7.174
 7372WAT      O22657   3.799   2.207   5.619
 7372WAT     H122658   3.707   2.179   5.590
 7372WAT     H222659   3.830   2.284   5.563
 7373WAT      O22660   3.796   2.028   5.904
 7373WAT     H122661   3.779   2.111   5.850
 7373WAT     H222662   3.886   1.991   5.882
 7374WAT      O22663   4.907   3.197   5.705
 7374WAT     H122664   4.808   3.186   5.707
 7374WAT     H222665   4.941   3.212   5.798
 7375WAT      O22666   5.217   3.629   6.545
 7375WAT     H122667   5.250   3.693   6.476
 7375WAT     H222668   5.283   3.623   6.620
 7376WAT      O22669   5.174   3.082   7.219
 7376WAT     H122670   5.165   3.072   7.318
 7376WAT     H222671   5.270   3.075   7.193
 7377WAT      O22672   4.114   3.603   7.146
 7377WAT     H122673   4.023   3.644   7.144
 7377WAT     H222674   4.107   3.509   7.178
 7378WAT      O22675   5.398   2.745   6.840
 7378WAT     H122676   5.371   2.656   6.803
 7378WAT     H222677   5.399   2.813   6.767
 7379WAT      O22678   4.949   2.187   6.035
 7379WAT     H122679   5.014   2.113   6.024
 7379WAT     H222680   4.969   2.237   6.119
 7380WAT      O22681   4.318   2.607   6.238
 7380WAT     H122682   4.368   2.692   6.219
 7380WAT     H222683   4.230   2.609   6.190
 7381WAT      O22684   5.454   2.796   7.103
 7381WAT     H122685   5.492   2.887   7.118
 7381WAT     H222686   5.446   2.779   7.004
 7382WAT      O22687   4.583   3.236   5.602
 7382WAT     H122688   4.537   3.251   5.690
 7382WAT     H222689   4.627   3.321   5.572
 7383WAT      O22690   4.385   3.652   6.539
 7383WAT     H122691   4.339   3.740   6.526
 7383WAT     H222692   4.484   3.664   6.532
 7384WAT      O22693   4.583   2.818   6.447
 7384WAT     H122694   4.637   2.749   6.495
 7384WAT     H222695   4.551   2.887   6.513
 7385WAT      O22696   4.807   2.846   5.673
 7385WAT     H122697   4.784   2.899   5.591
 7385WAT     H222698   4.888   2.790   5.654
 7386WAT      O22699   5.585   3.431   6.437
 7386WAT     H122700   5.514   3.419   6.367
 7386WAT     H222701   5.586   3.352   6.497
 7387WAT      O22702   3.803   3.102   6.239
 7387WAT     H122703   3.802   3.055   6.327
 7387WAT     H222704   3.885   3.074   6.188
 7388WAT      O22705   5.548   2.054   6.813
 7388WAT     H122706   5.544   1.964   6.857
 7388WAT     H222707   5.551   2.043   6.714
 7389WAT      O22708   4.152   2.286   6.106
 7389WAT     H122709   4.182   2.214   6.044
 7389WAT     H222710   4.113   2.246   6.189
 7390WAT      O22711   5.429   3.349   6.690
 7390WAT     H122712   5.336   3.324   6.663
 7390WAT     H222713   5.455   3.299   6.772
 7391WAT      O22714   4.041   2.409   6.866
 7391WAT     H122715   4.079   2.350   6.938
 7391WAT     H222716   4.081   2.383   6.778
 7392WAT      O22717   4.536   3.448   6.273
 7392WAT     H122718   4.568   3.458   6.179
 7392WAT     H222719   4.457   3.386   6.275
 7393WAT      O22720   5.148   2.076   6.698
 7393WAT     H122721   5.200   2.011   6.753
 7393WAT     H222722   5.099   2.139   6.759
 7394WAT      O22723   4.725   1.896   6.740
 7394WAT     H122724   4.662   1.824   6.709
 7394WAT     H222725   4.818   1.860   6.740
 7395WAT      O22726   4.494   3.192   5.887
 7395WAT     H122727   4.448   3.105   5.904
 7395WAT     H222728   4.585   3.189   5.928
 7396WAT      O22729   4.342   3.429   6.870
 7396WAT     H122730   4.337   3.511   6.927
 7396WAT     H222731   4.431   3.426   6.825
 7397WAT      O22732   5.076   1.914   5.754
 7397WAT     H122733   5.111   1.873   5.670
 7397WAT     H222734   4.986   1.876   5.774
 7398WAT      O22735   5.024   2.315   6.277
 7398WAT     H122736   4.965   2.395   6.281
 7398WAT     H222737   5.039   2.280   6.370
 7399WAT      O22738   5.317   2.083   6.468
 7399WAT     H122739   5.233   2.082   6.522
 7399WAT     H222740   5.319   2.166   6.412
 7400WAT      O22741   3.763   2.939   5.886
 7400WAT     H122742   3.862   2.928   5.877
 7400WAT     H222743   3.723   2.853   5.918
 7401WAT      O22744   4.599   3.508   5.923
 7401WAT     H122745   4.522   3.473   5.869
 7401WAT     H222746   4.567   3.579   5.985
 7402WAT      O22747   3.954   4.352   0.113
 7402WAT     H122748   3.861   4.350   0.150
 7402WAT     H222749   3.955   4.313   0.021
 7403WAT      O22750   3.949   3.999   0.996
 7403WAT     H122751   3.984   3.982   1.088
 7403WAT     H222752   3.861   3.954   0.984
 7404WAT      O22753   3.743   4.092   0.647
 7404WAT     H122754   3.661   4.135   0.686
 7404WAT     H222755   3.715   4.019   0.584
 7405WAT      O22756   4.293   4.999   1.165
 7405WAT     H122757   4.200   4.992   1.128
 7405WAT     H222758   4.304   5.088   1.209
 7406WAT      O22759   5.279   5.235   0.703
 7406WAT     H122760   5.222   5.219   0.784
 7406WAT     H222761   5.220   5.245   0.623
 7407WAT      O22762   4.859   4.427   0.717
 7407WAT     H122763   4.916   4.505   0.692
 7407WAT     H222764   4.799   4.453   0.793
 7408WAT      O22765   5.479   4.331   0.231
 7408WAT     H122766   5.467   4.318   0.132
 7408WAT     H222767   5.449   4.250   0.280
 7409WAT      O22768   4.492   4.868   1.023
 7409WAT     H122769   4.414   4.885   1.083
 7409WAT     H222770   4.526   4.955   0.987
 7410WAT      O22771   4.574   4.522   1.823
 7410WAT     H122772   4.570   4.598   1.888
 7410WAT     H222773   4.596   4.558   1.732
 7411WAT      O22774   4.409   4.736   0.665
 7411WAT     H122775   4.478   4.720   0.735
 7411WAT     H222776   4.336   4.793   0.703
 7412WAT      O22777   4.410   4.885   1.803
 7412WAT     H122778   4.470   4.964   1.817
 7412WAT     H222779   4.324   4.916   1.762
 7413WAT      O22780   4.059   5.159   1.061
 7413WAT     H122781   3.981   5.128   1.008
 7413WAT     H222782   4.117   5.217   1.004
 7414WAT      O22783   5.184   5.229   1.339
 7414WAT     H122784   5.208   5.323   1.365
 7414WAT     H222785   5.168   5.175   1.421
 7415WAT      O22786   4.162   4.116   1.499
 7415WAT     H122787   4.244   4.060   1.508
 7415WAT     H222788   4.081   4.058   1.503
 7416WAT      O22789   5.327   4.171   0.737
 7416WAT     H122790   5.253   4.217   0.687
 7416WAT     H222791   5.378   4.239   0.790
 7417WAT      O22792   3.955   5.437   0.483
 7417WAT     H122793   3.989   5.514   0.537
 7417WAT     H222794   3.999   5.437   0.393
 7418WAT      O22795   4.851   5.065   1.690
 7418WAT     H122796   4.898   5.065   1.778
 7418WAT     H222797   4.803   4.978   1.679
 7419WAT      O22798   3.954   5.158   0.538
 7419WAT     H122799   3.928   5.254   0.538
 7419WAT     H222800   3.883   5.104   0.583
 7420WAT      O22801   3.964   4.815   0.886
 7420WAT     H122802   3.978   4.731   0.938
 7420WAT     H222803   3.909   4.879   0.941
 7421WAT      O22804   4.344   5.510   1.439
 7421WAT     H122805   4.252   5.493   1.474
 7421WAT     H222806   4.372   5.602   1.465
 7422WAT      O22807   4.330   4.688   0.123
 7422WAT     H122808   4.337   4.772   0.069
 7422WAT     H222809   4.376   4.701   0.211
 7423WAT      O22810   5.318   3.838   1.480
 7423WAT     H122811   5.300   3.905   1.408
 7423WAT     H222812   5.315   3.884   1.569
 7424WAT      O22813   3.846   4.367   0.563
 7424WAT     H122814   3.801   4.279   0.580
 7424WAT     H222815   3.845   4.421   0.647
 7425WAT      O22816   5.566   5.491   0.359
 7425WAT     H122817   5.620   5.462   0.439
 7425WAT     H222818   5.596   5.581   0.330
 7426WAT      O22819   3.751   5.320   0.117
 7426WAT     H122820   3.732   5.224   0.138
 7426WAT     H222821   3.718   5.378   0.192
 7427WAT      O22822   5.413   4.646   0.612
 7427WAT     H122823   5.508   4.617   0.620
 7427WAT     H222824   5.405   4.711   0.537
 7428WAT      O22825   5.365   4.832   0.432
 7428WAT     H122826   5.451   4.834   0.380
 7428WAT     H222827   5.379   4.879   0.520
 7429WAT      O22828   3.837   4.461   1.597
 7429WAT     H122829   3.925   4.448   1.642
 7429WAT     H222830   3.824   4.558   1.575
 7430WAT      O22831   4.337   5.089   0.726
 7430WAT     H122832   4.288   5.002   0.735
 7430WAT     H222833   4.314   5.132   0.639
 7431WAT      O22834   5.017   4.952   1.423
 7431WAT     H122835   5.054   4.879   1.365
 7431WAT     H222836   5.069   4.957   1.508
 7432WAT      O22837   4.533   3.728   0.502
 7432WAT     H122838   4.573   3.819   0.493
 7432WAT     H222839   4.433   3.736   0.508
 7433WAT      O22840   3.921   4.700   1.264
 7433WAT     H122841   4.010   4.655   1.250
 7433WAT     H222842   3.848   4.635   1.245
 7434WAT      O22843   5.249   4.723   0.190
 7434WAT     H122844   5.186   4.647   0.203
 7434WAT     H222845   5.297   4.741   0.276
 7435WAT      O22846   4.911   5.516   1.616
 7435WAT     H122847   4.935   5.576   1.540
 7435WAT     H222848   4.918   5.421   1.586
 7436WAT      O22849   4.041   3.975   1.801
 7436WAT     H122850   4.112   4.046   1.807
 7436WAT     H222851   3.953   4.014   1.829
 7437WAT      O22852   5.190   5.141   0.953
 7437WAT     H122853   5.131   5.147   1.033
 7437WAT     H222854   5.175   5.053   0.907
 7438WAT      O22855   5.391   5.438   0.572
 7438WAT     H122856   5.350   5.415   0.484
 7438WAT     H222857   5.373   5.364   0.637
 7439WAT      O22858   4.322   4.453   0.270
 7439WAT     H122859   4.346   4.522   0.202
 7439WAT     H222860   4.244   4.486   0.324
 7440WAT      O22861   5.005   4.069   0.944
 7440WAT     H122862   4.919   4.019   0.931
 7440WAT     H222863   5.067   4.015   1.000
 7441WAT      O22864   5.300   5.386   0.307
 7441WAT     H122865   5.389   5.432   0.310
 7441WAT     H222866   5.279   5.362   0.212
 7442WAT      O22867   4.531   4.329   1.465
 7442WAT     H122868   4.484   4.326   1.554
 7442WAT     H222869   4.480   4.274   1.399
 7443WAT      O22870   5.118   4.193   1.674
 7443WAT     H122871   5.098   4.236   1.762
 7443WAT     H222872   5.196   4.131   1.683
 7444WAT      O22873   4.697   4.614   1.572
 7444WAT     H122874   4.743   4.530   1.543
 7444WAT     H222875   4.641   4.648   1.497
 7445WAT      O22876   4.715   4.134   1.242
 7445WAT     H122877   4.638   4.168   1.296
 7445WAT     H222878   4.681   4.083   1.163
 7446WAT      O22879   4.765   4.425   0.429
 7446WAT     H122880   4.791   4.421   0.525
 7446WAT     H222881   4.680   4.374   0.415
 7447WAT      O22882   3.800   4.535   0.789
 7447WAT     H122883   3.899   4.523   0.798
 7447WAT     H222884   3.776   4.630   0.810
 7448WAT      O22885   3.854   5.545   1.571
 7448WAT     H122886   3.844   5.530   1.670
 7448WAT     H222887   3.768   5.581   1.535
 7449WAT      O22888   4.589   4.072   0.195
 7449WAT     H122889   4.648   4.135   0.146
 7449WAT     H222890   4.608   3.978   0.166
 7450WAT      O22891   5.443   4.309   1.831
 7450WAT     H122892   5.417   4.398   1.795
 7450WAT     H222893   5.441   4.241   1.758
 7451WAT      O22894   5.086   4.868   0.545
 7451WAT     H122895   5.169   4.839   0.497
 7451WAT     H222896   5.037   4.935   0.489
 7452WAT      O22897   4.274   3.920   0.885
 7452WAT     H122898   4.269   3.915   0.985
 7452WAT     H222899   4.276   4.016   0.856
 7453WAT      O22900   4.732   5.180   0.477
 7453WAT     H122901   4.686   5.252   0.425
 7453WAT     H222902   4.728   5.200   0.575
 7454WAT      O22903   4.075   5.525   0.853
 7454WAT     H122904   4.125   5.439   0.859
 7454WAT     H222905   4.140   5.602   0.850
 7455WAT      O22906   5.519   4.790   0.873
 7455WAT     H122907   5.457   4.775   0.797
 7455WAT     H222908   5.467   4.801   0.958
 7456WAT      O22909   4.951   5.274   1.506
 7456WAT     H122910   4.957   5.197   1.570
 7456WAT     H222911   4.899   5.248   1.426
 7457WAT      O22912   4.045   4.667   0.242
 7457WAT     H122913   4.127   4.706   0.200
 7457WAT     H222914   4.018   4.585   0.193
 7458WAT      O22915   5.182   4.459   0.728
 7458WAT     H122916   5.177   4.394   0.803
 7458WAT     H222917   5.262   4.518   0.741
 7459WAT      O22918   4.185   4.990   1.727
 7459WAT     H122919   4.135   4.991   1.641
 7459WAT     H222920   4.122   4.972   1.803
 7460WAT      O22921   4.835   5.500   0.237
 7460WAT     H122922   4.775   5.438   0.287
 7460WAT     H222923   4.866   5.456   0.152
 7461WAT      O22924   3.926   4.009   1.498
 7461WAT     H122925   3.846   4.069   1.485
 7461WAT     H222926   3.916   3.960   1.584
 7462WAT      O22927   5.356   5.101   0.081
 7462WAT     H122928   5.324   5.195   0.071
 7462WAT     H222929   5.280   5.038   0.069
 7463WAT      O22930   4.188   5.467   0.323
 7463WAT     H122931   4.221   5.506   0.409
 7463WAT     H222932   4.264   5.460   0.258
 7464WAT      O22933   3.973   5.509   1.241
 7464WAT     H122934   4.030   5.444   1.291
 7464WAT     H222935   3.957   5.476   1.148
 7465WAT      O22936   4.664   5.422   0.904
 7465WAT     H122937   4.744   5.365   0.925
 7465WAT     H222938   4.615   5.382   0.827
 7466WAT      O22939   4.106   4.424   0.480
 7466WAT     H122940   4.151   4.334   0.477
 7466WAT     H222941   4.012   4.413   0.513
 7467WAT      O22942   5.271   3.946   1.729
 7467WAT     H122943   5.266   3.983   1.821
 7467WAT     H222944   5.199   3.877   1.717
 7468WAT      O22945   4.505   3.988   1.749
 7468WAT     H122946   4.572   3.927   1.792
 7468WAT     H222947   4.432   4.007   1.814
 7469WAT      O22948   4.612   5.238   1.195
 7469WAT     H122949   4.589   5.213   1.101
 7469WAT     H222950   4.673   5.169   1.234
 7470WAT      O22951   5.075   4.314   1.433
 7470WAT     H122952   5.103   4.271   1.518
 7470WAT     H222953   5.100   4.410   1.434
 7471WAT      O22954   4.527   5.126   0.924
 7471WAT     H122955   4.617   5.140   0.882
 7471WAT     H222956   4.456   5.128   0.853
 7472WAT      O22957   4.646   4.227   0.899
 7472WAT     H122958   4.621   4.218   0.803
 7472WAT     H222959   4.694   4.145   0.930
 7473WAT      O22960   4.263   3.788   0.512
 7473WAT     H122961   4.182   3.789   0.570
 7473WAT     H222962   4.266   3.871   0.457
 7474WAT      O22963   5.158   4.912   0.041
 7474WAT     H122964   5.190   4.836   0.098
 7474WAT     H222965   5.066   4.939   0.071
 7475WAT      O22966   4.659   3.960   0.480
 7475WAT     H122967   4.611   4.001   0.402
 7475WAT     H222968   4.758   3.958   0.461
 7476WAT      O22969   4.800   4.407   1.464
 7476WAT     H122970   4.720   4.346   1.467
 7476WAT     H222971   4.881   4.354   1.440
 7477WAT      O22972   4.951   5.294   0.793
 7477WAT     H122973   4.972   5.368   0.728
 7477WAT     H222974   5.019   5.294   0.866
 7478WAT      O22975   4.183   4.876   0.741
 7478WAT     H122976   4.112   4.849   0.806
 7478WAT     H222977   4.157   4.848   0.648
 7479WAT      O22978   4.995   5.521   0.591
 7479WAT     H122979   5.039   5.585   0.527
 7479WAT     H222980   4.945   5.573   0.661
 7480WAT      O22981   4.756   4.273   0.016
 7480WAT     H122982   4.715   4.355  -0.023
 7480WAT     H222983   4.820   4.299   0.089
 7481WAT      O22984   3.802   4.280   1.386
 7481WAT     H122985   3.894   4.279   1.345
 7481WAT     H222986   3.796   4.354   1.453
 7482WAT      O22987   4.285   3.946   1.147
 7482WAT     H122988   4.323   3.862   1.184
 7482WAT     H222989   4.197   3.965   1.191
 7483WAT      O22990   4.590   4.178   0.642
 7483WAT     H122991   4.558   4.250   0.580
 7483WAT     H222992   4.614   4.097   0.589
 7484WAT      O22993   4.741   3.763   0.753
 7484WAT     H122994   4.669   3.768   0.684
 7484WAT     H222995   4.717   3.694   0.822
 7485WAT      O22996   5.153   4.897   0.867
 7485WAT     H122997   5.098   4.813   0.860
 7485WAT     H222998   5.179   4.926   0.775
 7486WAT      O22999   5.190   4.314   0.992
 7486WAT     H123000   5.160   4.219   0.999
 7486WAT     H223001   5.263   4.330   1.058
 7487WAT      O23002   5.581   4.557   0.377
 7487WAT     H123003   5.623   4.493   0.441
 7487WAT     H223004   5.543   4.506   0.299
 7488WAT      O23005   4.212   5.109   0.174
 7488WAT     H123006   4.125   5.094   0.221
 7488WAT     H223007   4.195   5.135   0.079
 7489WAT      O23008   5.388   5.004   0.657
 7489WAT     H123009   5.487   5.012   0.671
 7489WAT     H223010   5.343   5.088   0.688
 7490WAT      O23011   5.114   4.299   0.078
 7490WAT     H123012   5.060   4.278   0.159
 7490WAT     H223013   5.205   4.258   0.087
 7491WAT      O23014   4.251   3.980   0.328
 7491WAT     H123015   4.278   3.921   0.253
 7491WAT     H223016   4.251   4.075   0.297
 7492WAT      O23017   5.478   4.947   1.588
 7492WAT     H123018   5.569   4.908   1.575
 7492WAT     H223019   5.486   5.043   1.612
 7493WAT      O23020   4.788   5.071   1.340
 7493WAT     H123021   4.708   5.048   1.395
 7493WAT     H223022   4.871   5.045   1.389
 7494WAT      O23023   5.316   5.353   1.625
 7494WAT     H123024   5.343   5.387   1.535
 7494WAT     H223025   5.395   5.315   1.671
 7495WAT      O23026   4.835   4.919   1.100
 7495WAT     H123027   4.795   4.963   1.181
 7495WAT     H223028   4.794   4.956   1.017
 7496WAT      O23029   5.362   4.823   1.079
 7496WAT     H123030   5.367   4.904   1.138
 7496WAT     H223031   5.276   4.825   1.028
 7497WAT      O23032   4.639   3.813   1.402
 7497WAT     H123033   4.664   3.793   1.307
 7497WAT     H223034   4.711   3.869   1.444
 7498WAT      O23035   4.704   4.840   1.719
 7498WAT     H123036   4.605   4.846   1.729
 7498WAT     H223037   4.727   4.760   1.663
 7499WAT      O23038   4.429   4.774   0.368
 7499WAT     H123039   4.415   4.781   0.467
 7499WAT     H223040   4.513   4.723   0.350
 7500WAT      O23041   4.134   4.537   1.251
 7500WAT     H123042   4.220   4.549   1.301
 7500WAT     H223043   4.092   4.450   1.278
 7501WAT      O23044   4.998   4.110   1.262
 7501WAT     H123045   5.019   4.184   1.326
 7501WAT     H223046   4.909   4.127   1.219
 7502WAT      O23047   3.788   5.288   1.331
 7502WAT     H123048   3.742   5.370   1.297
 7502WAT     H223049   3.886   5.307   1.340
 7503WAT      O23050   4.091   4.824   0.501
 7503WAT     H123051   4.084   4.907   0.445
 7503WAT     H223052   4.095   4.744   0.441
 7504WAT      O23053   4.290   4.261   0.865
 7504WAT     H123054   4.302   4.327   0.791
 7504WAT     H223055   4.336   4.295   0.948
 7505WAT      O23056   4.976   5.072   0.388
 7505WAT     H123057   5.026   5.149   0.428
 7505WAT     H223058   4.881   5.074   0.420
 7506WAT      O23059   4.996   5.169   1.142
 7506WAT     H123060   5.043   5.182   1.229
 7506WAT     H223061   4.930   5.095   1.151
 7507WAT      O23062   5.306   4.363   0.472
 7507WAT     H123063   5.275   4.424   0.545
 7507WAT     H223064   5.356   4.415   0.403
 7508WAT      O23065   4.078   5.234   1.329
 7508WAT     H123066   4.057   5.190   1.242
 7508WAT     H223067   4.175   5.260   1.332
 7509WAT      O23068   4.126   4.475   1.598
 7509WAT     H123069   4.194   4.530   1.551
 7509WAT     H223070   4.166   4.387   1.625
 7510WAT      O23071   5.311   4.503   1.670
 7510WAT     H123072   5.219   4.541   1.665
 7510WAT     H223073   5.371   4.550   1.605
 7511WAT      O23074   4.737   3.829   1.770
 7511WAT     H123075   4.743   3.914   1.718
 7511WAT     H223076   4.769   3.753   1.713
 7512WAT      O23077   4.228   3.774   1.740
 7512WAT     H123078   4.186   3.717   1.670
 7512WAT     H223079   4.162   3.843   1.772
 7513WAT      O23080   4.297   4.594   1.029
 7513WAT     H123081   4.341   4.683   1.020
 7513WAT     H223082   4.234   4.594   1.106
 7514WAT      O23083   5.084   4.586   1.045
 7514WAT     H123084   5.009   4.586   0.979
 7514WAT     H223085   5.121   4.494   1.054
 7515WAT      O23086   4.933   4.249   0.275
 7515WAT     H123087   4.946   4.165   0.329
 7515WAT     H223088   4.904   4.323   0.335
 7516WAT      O23089   4.031   3.937   1.231
 7516WAT     H123090   4.008   3.974   1.321
 7516WAT     H223091   4.001   3.842   1.225
 7517WAT      O23092   3.761   5.034   1.282
 7517WAT     H123093   3.814   4.985   1.350
 7517WAT     H223094   3.783   5.132   1.287
 7518WAT      O23095   4.456   4.358   1.064
 7518WAT     H123096   4.515   4.332   0.988
 7518WAT     H223097   4.428   4.454   1.053
 7519WAT      O23098   5.452   4.659   1.854
 7519WAT     H123099   5.406   4.652   1.765
 7519WAT     H223100   5.390   4.703   1.920
 7520WAT      O23101   4.031   3.787   0.618
 7520WAT     H123102   4.020   3.881   0.651
 7520WAT     H223103   4.026   3.724   0.695
 7521WAT      O23104   5.346   4.091   0.374
 7521WAT     H123105   5.348   4.015   0.438
 7521WAT     H223106   5.298   4.168   0.414
 7522WAT      O23107   4.747   4.490   0.966
 7522WAT     H123108   4.762   4.511   1.062
 7522WAT     H223109   4.717   4.395   0.957
 7523WAT      O23110   4.704   5.297   1.700
 7523WAT     H123111   4.684   5.341   1.612
 7523WAT     H223112   4.743   5.206   1.684
 7524WAT      O23113   5.583   5.242   1.605
 7524WAT     H123114   5.597   5.269   1.510
 7524WAT     H223115   5.666   5.264   1.658
 7525WAT      O23116   4.074   4.622   1.804
 7525WAT     H123117   4.150   4.666   1.852
 7525WAT     H223118   4.109   4.575   1.722
 7526WAT      O23119   5.264   3.998   0.125
 7526WAT     H123120   5.203   3.923   0.148
 7526WAT     H223121   5.286   4.050   0.208
 7527WAT      O23122   5.027   4.562   0.042
 7527WAT     H123123   5.061   4.469   0.057
 7527WAT     H223124   5.045   4.589  -0.053
 7528WAT      O23125   4.792   5.057   0.849
 7528WAT     H123126   4.799   4.973   0.794
 7528WAT     H223127   4.854   5.126   0.813
 7529WAT      O23128   4.043   4.534   0.949
 7529WAT     H123129   4.136   4.570   0.954
 7529WAT     H223130   4.037   4.449   1.001
 7530WAT      O23131   4.063   4.233   1.006
 7530WAT     H123132   4.011   4.150   0.989
 7530WAT     H223133   4.140   4.238   0.942
 7531WAT      O23134   4.862   4.104   1.678
 7531WAT     H123135   4.817   4.167   1.742
 7531WAT     H223136   4.955   4.135   1.661
 7532WAT      O23137   4.884   3.931   1.477
 7532WAT     H123138   4.884   3.995   1.554
 7532WAT     H223139   4.912   3.979   1.394
 7533WAT      O23140   3.812   5.525   0.927
 7533WAT     H123141   3.770   5.439   0.900
 7533WAT     H223142   3.906   5.528   0.893
 7534WAT      O23143   4.228   5.292   0.910
 7534WAT     H123144   4.294   5.366   0.919
 7534WAT     H223145   4.272   5.213   0.868
 7535WAT      O23146   4.726   4.520   1.238
 7535WAT     H123147   4.767   4.488   1.324
 7535WAT     H223148   4.630   4.493   1.235
 7536WAT      O23149   3.764   4.268   1.114
 7536WAT     H123150   3.849   4.235   1.073
 7536WAT     H223151   3.777   4.283   1.212
 7537WAT      O23152   3.913   4.244   1.722
 7537WAT     H123153   3.972   4.204   1.652
 7537WAT     H223154   3.855   4.315   1.681
 7538WAT      O23155   5.093   4.674   1.660
 7538WAT     H123156   5.132   4.763   1.680
 7538WAT     H223157   5.103   4.654   1.563
 7539WAT      O23158   4.539   4.296   0.325
 7539WAT     H123159   4.546   4.207   0.279
 7539WAT     H223160   4.445   4.330   0.317
 7540WAT      O23161   5.381   4.328   1.206
 7540WAT     H123162   5.343   4.259   1.268
 7540WAT     H223163   5.463   4.292   1.162
 7541WAT      O23164   3.976   5.288   1.744
 7541WAT     H123165   3.946   5.345   1.820
 7541WAT     H223166   3.969   5.191   1.770
 7542WAT      O23167   4.395   4.188   1.269
 7542WAT     H123168   4.361   4.099   1.239
 7542WAT     H223169   4.421   4.242   1.189
 7543WAT      O23170   4.654   5.402   1.465
 7543WAT     H123171   4.630   5.384   1.370
 7543WAT     H223172   4.684   5.496   1.475
 7544WAT      O23173   4.197   4.224   0.191
 7544WAT     H123174   4.258   4.304   0.195
 7544WAT     H223175   4.102   4.255   0.198
 7545WAT      O23176   3.883   4.861   1.466
 7545WAT     H123177   3.905   4.800   1.542
 7545WAT     H223178   3.893   4.812   1.380
 7546WAT      O23179   5.071   4.783   1.234
 7546WAT     H123180   5.095   4.720   1.160
 7546WAT     H223181   4.981   4.823   1.216
 7547WAT      O23182   5.026   4.579   0.309
 7547WAT     H123183   4.940   4.548   0.351
 7547WAT     H223184   5.022   4.565   0.210
 7548WAT      O23185   5.483   5.471   1.154
 7548WAT     H123186   5.544   5.501   1.081
 7548WAT     H223187   5.445   5.382   1.132
 7549WAT      O23188   4.976   5.455   1.128
 7549WAT     H123189   5.060   5.460   1.074
 7549WAT     H223190   4.953   5.359   1.146
 7550WAT      O23191   3.807   4.982   1.022
 7550WAT     H123192   3.802   4.981   1.122
 7550WAT     H223193   3.724   4.941   0.984
 7551WAT      O23194   4.412   5.386   1.716
 7551WAT     H123195   4.356   5.467   1.725
 7551WAT     H223196   4.464   5.390   1.630
 7552WAT      O23197   4.627   3.810   0.133
 7552WAT     H123198   4.678   3.811   0.047
 7552WAT     H223199   4.683   3.768   0.204
 7553WAT      O23200   5.450   3.859   0.523
 7553WAT     H123201   5.523   3.842   0.456
 7553WAT     H223202   5.419   3.772   0.561
 7554WAT      O23203   5.112   5.297   0.477
 7554WAT     H123204   5.179   5.309   0.403
 7554WAT     H223205   5.072   5.386   0.500
 7555WAT      O23206   3.854   5.518   1.851
 7555WAT     H123207   3.813   5.444   1.904
 7555WAT     H223208   3.918   5.569   1.909
 7556WAT      O23209   5.004   4.651   0.672
 7556WAT     H123210   5.064   4.570   0.674
 7556WAT     H223211   5.044   4.720   0.612
 7557WAT      O23212   4.554   4.997   1.422
 7557WAT     H123213   4.549   5.030   1.517
 7557WAT     H223214   4.468   5.016   1.376
 7558WAT      O23215   4.396   5.340   0.154
 7558WAT     H123216   4.405   5.350   0.055
 7558WAT     H223217   4.356   5.251   0.175
 7559WAT      O23218   5.374   5.444   1.394
 7559WAT     H123219   5.427   5.454   1.310
 7559WAT     H223220   5.347   5.534   1.428
 7560WAT      O23221   5.565   3.899   0.963
 7560WAT     H123222   5.604   3.814   0.927
 7560WAT     H223223   5.467   3.901   0.944
 7561WAT      O23224   3.987   4.050   0.720
 7561WAT     H123225   3.908   4.101   0.686
 7561WAT     H223226   3.978   4.035   0.818
 7562WAT      O23227   4.918   5.336   0.031
 7562WAT     H123228   4.924   5.243   0.068
 7562WAT     H223229   4.859   5.336  -0.049
 7563WAT      O23230   4.546   4.726   1.372
 7563WAT     H123231   4.586   4.725   1.280
 7563WAT     H223232   4.556   4.818   1.412
 7564WAT      O23233   4.640   4.634   0.291
 7564WAT     H123234   4.703   4.672   0.223
 7564WAT     H223235   4.680   4.551   0.330
 7565WAT      O23236   5.228   5.331   0.044
 7565WAT     H123237   5.136   5.368   0.051
 7565WAT     H223238   5.266   5.351  -0.046
 7566WAT      O23239   4.096   5.012   1.490
 7566WAT     H123240   4.083   5.105   1.456
 7566WAT     H223241   4.012   4.960   1.477
 7567WAT      O23242   5.338   5.016   1.289
 7567WAT     H123243   5.398   5.019   1.369
 7567WAT     H223244   5.263   5.080   1.302
 7568WAT      O23245   4.763   4.822   0.696
 7568WAT     H123246   4.693   4.775   0.750
 7568WAT     H223247   4.822   4.754   0.653
 7569WAT      O23248   4.738   3.960   0.971
 7569WAT     H123249   4.730   3.924   0.878
 7569WAT     H223250   4.736   3.884   1.036
 7570WAT      O23251   4.314   5.211   0.491
 7570WAT     H123252   4.356   5.153   0.421
 7570WAT     H223253   4.270   5.290   0.447
 7571WAT      O23254   5.433   4.109   1.381
 7571WAT     H123255   5.506   4.178   1.385
 7571WAT     H223256   5.461   4.034   1.322
 7572WAT      O23257   3.979   5.072   0.290
 7572WAT     H123258   3.883   5.073   0.263
 7572WAT     H223259   3.991   5.125   0.374
 7573WAT      O23260   3.829   4.737   1.726
 7573WAT     H123261   3.752   4.704   1.780
 7573WAT     H223262   3.914   4.707   1.768
 7574WAT      O23263   4.396   3.927   1.489
 7574WAT     H123264   4.486   3.911   1.449
 7574WAT     H223265   4.404   3.932   1.588
 7575WAT      O23266   3.799   4.069   0.033
 7575WAT     H123267   3.707   4.041   0.004
 7575WAT     H223268   3.830   4.146  -0.023
 7576WAT      O23269   5.164   4.580   1.398
 7576WAT     H123270   5.107   4.632   1.335
 7576WAT     H223271   5.260   4.592   1.374
 7577WAT      O23272   3.796   3.890   0.318
 7577WAT     H123273   3.779   3.973   0.264
 7577WAT     H223274   3.886   3.853   0.296
 7578WAT      O23275   4.907   5.059   0.119
 7578WAT     H123276   4.808   5.048   0.121
 7578WAT     H223277   4.941   5.074   0.212
 7579WAT      O23278   4.337   4.566   1.431
 7579WAT     H123279   4.393   4.647   1.414
 7579WAT     H223280   4.396   4.486   1.434
 7580WAT      O23281   5.217   5.491   0.959
 7580WAT     H123282   5.250   5.555   0.890
 7580WAT     H223283   5.283   5.485   1.034
 7581WAT      O23284   4.440   4.289   1.708
 7581WAT     H123285   4.459   4.354   1.782
 7581WAT     H223286   4.500   4.209   1.717
 7582WAT      O23287   5.174   4.944   1.633
 7582WAT     H123288   5.165   4.934   1.732
 7582WAT     H223289   5.270   4.937   1.607
 7583WAT      O23290   4.114   5.465   1.560
 7583WAT     H123291   4.023   5.506   1.558
 7583WAT     H223292   4.107   5.371   1.592
 7584WAT      O23293   5.398   4.607   1.254
 7584WAT     H123294   5.371   4.518   1.217
 7584WAT     H223295   5.399   4.675   1.181
 7585WAT      O23296   4.949   4.049   0.449
 7585WAT     H123297   5.014   3.975   0.438
 7585WAT     H223298   4.969   4.099   0.533
 7586WAT      O23299   4.318   4.469   0.652
 7586WAT     H123300   4.368   4.554   0.633
 7586WAT     H223301   4.230   4.471   0.604
 7587WAT      O23302   5.501   4.066   1.642
 7587WAT     H123303   5.484   4.097   1.548
 7587WAT     H223304   5.417   4.029   1.680
 7588WAT      O23305   5.454   4.658   1.517
 7588WAT     H123306   5.492   4.749   1.532
 7588WAT     H223307   5.446   4.641   1.418
 7589WAT      O23308   4.583   5.098   0.016
 7589WAT     H123309   4.537   5.113   0.104
 7589WAT     H223310   4.627   5.183  -0.014
 7590WAT      O23311   4.385   5.514   0.953
 7590WAT     H123312   4.339   5.602   0.940
 7590WAT     H223313   4.484   5.526   0.946
 7591WAT      O23314   4.583   4.680   0.861
 7591WAT     H123315   4.637   4.611   0.909
 7591WAT     H223316   4.551   4.749   0.927
 7592WAT      O23317   4.807   4.708   0.087
 7592WAT     H123318   4.784   4.761   0.005
 7592WAT     H223319   4.888   4.652   0.068
 7593WAT      O23320   5.585   5.293   0.851
 7593WAT     H123321   5.514   5.281   0.781
 7593WAT     H223322   5.586   5.214   0.911
 7594WAT      O23323   3.945   5.038   1.844
 7594WAT     H123324   3.880   4.965   1.823
 7594WAT     H223325   3.949   5.052   1.942
 7595WAT      O23326   3.803   4.964   0.653
 7595WAT     H123327   3.802   4.917   0.741
 7595WAT     H223328   3.885   4.936   0.602
 7596WAT      O23329   4.396   5.115   1.624
 7596WAT     H123330   4.318   5.065   1.662
 7596WAT     H223331   4.393   5.210   1.655
 7597WAT      O23332   5.548   3.916   1.227
 7597WAT     H123333   5.544   3.826   1.271
 7597WAT     H223334   5.551   3.905   1.128
 7598WAT      O23335   4.152   4.148   0.520
 7598WAT     H123336   4.182   4.076   0.458
 7598WAT     H223337   4.113   4.108   0.603
 7599WAT      O23338   5.429   5.211   1.104
 7599WAT     H123339   5.336   5.186   1.077
 7599WAT     H223340   5.455   5.161   1.186
 7600WAT      O23341   4.041   4.271   1.280
 7600WAT     H123342   4.079   4.212   1.352
 7600WAT     H223343   4.081   4.245   1.192
 7601WAT      O23344   4.536   5.310   0.687
 7601WAT     H123345   4.568   5.320   0.593
 7601WAT     H223346   4.457   5.248   0.689
 7602WAT      O23347   5.148   3.938   1.112
 7602WAT     H123348   5.200   3.873   1.167
 7602WAT     H223349   5.099   4.001   1.173
 7603WAT      O23350   4.725   3.758   1.154
 7603WAT     H123351   4.662   3.686   1.123
 7603WAT     H223352   4.818   3.722   1.154
 7604WAT      O23353   4.494   5.054   0.301
 7604WAT     H123354   4.448   4.967   0.318
 7604WAT     H223355   4.585   5.051   0.342
 7605WAT      O23356   4.342   5.291   1.284
 7605WAT     H123357   4.337   5.373   1.341
 7605WAT     H223358   4.431   5.288   1.239
 7606WAT      O23359   5.076   3.776   0.168
 7606WAT     H123360   5.111   3.735   0.084
 7606WAT     H223361   4.986   3.738   0.188
 7607WAT      O23362   5.024   4.177   0.691
 7607WAT     H123363   4.965   4.257   0.695
 7607WAT     H223364   5.039   4.142   0.784
 7608WAT      O23365   5.317   3.945   0.882
 7608WAT     H123366   5.233   3.944   0.936
 7608WAT     H223367   5.319   4.028   0.826
 7609WAT      O23368   3.763   4.801   0.300
 7609WAT     H123369   3.862   4.790   0.291
 7609WAT     H223370   3.723   4.715   0.332
 7610WAT      O23371   4.599   5.370   0.337
 7610WAT     H123372   4.522   5.335   0.283
 7610WAT     H223373   4.567   5.441   0.399
 7611WAT      O23374   3.954   4.352   1.975
 7611WAT     H123375   3.861   4.350   2.012
 7611WAT     H223376   3.955   4.313   1.883
 7612WAT      O23377   3.743   4.092   2.509
 7612WAT     H123378   3.661   4.135   2.548
 7612WAT     H223379   3.715   4.019   2.446
 7613WAT      O23380   4.293   4.999   3.027
 7613WAT     H123381   4.200   4.992   2.990
 7613WAT     H223382   4.304   5.088   3.071
 7614WAT      O23383   5.279   5.235   2.565
 7614WAT     H123384   5.222   5.219   2.646
 7614WAT     H223385   5.220   5.245   2.485
 7615WAT      O23386   4.859   4.427   2.579
 7615WAT     H123387   4.916   4.505   2.554
 7615WAT     H223388   4.799   4.453   2.655
 7616WAT      O23389   5.479   4.331   2.093
 7616WAT     H123390   5.467   4.318   1.994
 7616WAT     H223391   5.449   4.250   2.142
 7617WAT      O23392   4.492   4.868   2.885
 7617WAT     H123393   4.414   4.885   2.945
 7617WAT     H223394   4.526   4.955   2.849
 7618WAT      O23395   4.574   4.522   3.685
 7618WAT     H123396   4.570   4.598   3.750
 7618WAT     H223397   4.596   4.558   3.594
 7619WAT      O23398   4.409   4.736   2.527
 7619WAT     H123399   4.478   4.720   2.597
 7619WAT     H223400   4.336   4.793   2.565
 7620WAT      O23401   4.410   4.885   3.665
 7620WAT     H123402   4.470   4.964   3.679
 7620WAT     H223403   4.324   4.916   3.624
 7621WAT      O23404   4.059   5.159   2.923
 7621WAT     H123405   3.981   5.128   2.870
 7621WAT     H223406   4.117   5.217   2.866
 7622WAT      O23407   5.184   5.229   3.201
 7622WAT     H123408   5.208   5.323   3.227
 7622WAT     H223409   5.168   5.175   3.283
 7623WAT      O23410   5.327   4.171   2.599
 7623WAT     H123411   5.253   4.217   2.549
 7623WAT     H223412   5.378   4.239   2.652
 7624WAT      O23413   3.955   5.437   2.345
 7624WAT     H123414   3.989   5.514   2.399
 7624WAT     H223415   3.999   5.437   2.255
 7625WAT      O23416   4.851   5.065   3.552
 7625WAT     H123417   4.898   5.065   3.640
 7625WAT     H223418   4.803   4.978   3.541
 7626WAT      O23419   3.954   5.158   2.400
 7626WAT     H123420   3.928   5.254   2.400
 7626WAT     H223421   3.883   5.104   2.445
 7627WAT      O23422   3.964   4.815   2.748
 7627WAT     H123423   3.978   4.731   2.800
 7627WAT     H223424   3.909   4.879   2.803
 7628WAT      O23425   4.344   5.510   3.301
 7628WAT     H123426   4.252   5.493   3.336
 7628WAT     H223427   4.372   5.602   3.327
 7629WAT      O23428   4.330   4.688   1.985
 7629WAT     H123429   4.337   4.772   1.931
 7629WAT     H223430   4.376   4.701   2.073
 7630WAT      O23431   5.318   3.838   3.342
 7630WAT     H123432   5.300   3.905   3.270
 7630WAT     H223433   5.315   3.884   3.431
 7631WAT      O23434   3.846   4.367   2.425
 7631WAT     H123435   3.801   4.279   2.442
 7631WAT     H223436   3.845   4.421   2.509
 7632WAT      O23437   5.566   5.491   2.221
 7632WAT     H123438   5.620   5.462   2.301
 7632WAT     H223439   5.596   5.581   2.192
 7633WAT      O23440   3.751   5.320   1.979
 7633WAT     H123441   3.732   5.224   2.000
 7633WAT     H223442   3.718   5.378   2.054
 7634WAT      O23443   5.413   4.646   2.474
 7634WAT     H123444   5.508   4.617   2.482
 7634WAT     H223445   5.405   4.711   2.399
 7635WAT      O23446   5.365   4.832   2.294
 7635WAT     H123447   5.451   4.834   2.242
 7635WAT     H223448   5.379   4.879   2.382
 7636WAT      O23449   3.837   4.461   3.459
 7636WAT     H123450   3.925   4.448   3.504
 7636WAT     H223451   3.824   4.558   3.437
 7637WAT      O23452   4.337   5.089   2.588
 7637WAT     H123453   4.288   5.002   2.597
 7637WAT     H223454   4.314   5.132   2.501
 7638WAT      O23455   5.017   4.952   3.285
 7638WAT     H123456   5.054   4.879   3.227
 7638WAT     H223457   5.069   4.957   3.370
 7639WAT      O23458   4.533   3.728   2.364
 7639WAT     H123459   4.573   3.819   2.355
 7639WAT     H223460   4.433   3.736   2.370
 7640WAT      O23461   3.921   4.700   3.126
 7640WAT     H123462   4.010   4.655   3.112
 7640WAT     H223463   3.848   4.635   3.107
 7641WAT      O23464   5.249   4.723   2.052
 7641WAT     H123465   5.186   4.647   2.065
 7641WAT     H223466   5.297   4.741   2.138
 7642WAT      O23467   4.911   5.516   3.478
 7642WAT     H123468   4.935   5.576   3.402
 7642WAT     H223469   4.918   5.421   3.448
 7643WAT      O23470   5.190   5.141   2.815
 7643WAT     H123471   5.131   5.147   2.895
 7643WAT     H223472   5.175   5.053   2.769
 7644WAT      O23473   5.391   5.438   2.434
 7644WAT     H123474   5.350   5.415   2.346
 7644WAT     H223475   5.373   5.364   2.499
 7645WAT      O23476   4.322   4.453   2.132
 7645WAT     H123477   4.346   4.522   2.064
 7645WAT     H223478   4.244   4.486   2.186
 7646WAT      O23479   5.005   4.069   2.806
 7646WAT     H123480   4.919   4.019   2.793
 7646WAT     H223481   5.067   4.015   2.862
 7647WAT      O23482   5.300   5.386   2.169
 7647WAT     H123483   5.389   5.432   2.172
 7647WAT     H223484   5.279   5.362   2.074
 7648WAT      O23485   4.531   4.329   3.327
 7648WAT     H123486   4.484   4.326   3.416
 7648WAT     H223487   4.480   4.274   3.261
 7649WAT      O23488   5.118   4.193   3.536
 7649WAT     H123489   5.098   4.236   3.624
 7649WAT     H223490   5.196   4.131   3.545
 7650WAT      O23491   4.697   4.614   3.434
 7650WAT     H123492   4.743   4.530   3.405
 7650WAT     H223493   4.641   4.648   3.359
 7651WAT      O23494   4.715   4.134   3.104
 7651WAT     H123495   4.638   4.168   3.158
 7651WAT     H223496   4.681   4.083   3.025
 7652WAT      O23497   4.765   4.425   2.291
 7652WAT     H123498   4.791   4.421   2.387
 7652WAT     H223499   4.680   4.374   2.277
 7653WAT      O23500   3.800   4.535   2.651
 7653WAT     H123501   3.899   4.523   2.660
 7653WAT     H223502   3.776   4.630   2.672
 7654WAT      O23503   3.854   5.545   3.433
 7654WAT     H123504   3.844   5.530   3.532
 7654WAT     H223505   3.768   5.581   3.397
 7655WAT      O23506   4.589   4.072   2.057
 7655WAT     H123507   4.648   4.135   2.008
 7655WAT     H223508   4.608   3.978   2.028
 7656WAT      O23509   5.443   4.309   3.693
 7656WAT     H123510   5.417   4.398   3.657
 7656WAT     H223511   5.441   4.241   3.620
 7657WAT      O23512   5.086   4.868   2.407
 7657WAT     H123513   5.169   4.839   2.359
 7657WAT     H223514   5.037   4.935   2.351
 7658WAT      O23515   4.732   5.180   2.339
 7658WAT     H123516   4.686   5.252   2.287
 7658WAT     H223517   4.728   5.200   2.437
 7659WAT      O23518   4.075   5.525   2.715
 7659WAT     H123519   4.125   5.439   2.721
 7659WAT     H223520   4.140   5.602   2.712
 7660WAT      O23521   5.519   4.790   2.735
 7660WAT     H123522   5.457   4.775   2.659
 7660WAT     H223523   5.467   4.801   2.820
 7661WAT      O23524   4.951   5.274   3.368
 7661WAT     H123525   4.957   5.197   3.432
 7661WAT     H223526   4.899   5.248   3.288
 7662WAT      O23527   4.045   4.667   2.104
 7662WAT     H123528   4.127   4.706   2.062
 7662WAT     H223529   4.018   4.585   2.055
 7663WAT      O23530   5.182   4.459   2.590
 7663WAT     H123531   5.177   4.394   2.665
 7663WAT     H223532   5.262   4.518   2.603
 7664WAT      O23533   4.185   4.990   3.589
 7664WAT     H123534   4.135   4.991   3.503
 7664WAT     H223535   4.122   4.972   3.665
 7665WAT      O23536   4.835   5.500   2.099
 7665WAT     H123537   4.775   5.438   2.149
 7665WAT     H223538   4.866   5.456   2.014
 7666WAT      O23539   5.356   5.101   1.943
 7666WAT     H123540   5.324   5.195   1.933
 7666WAT     H223541   5.280   5.038   1.931
 7667WAT      O23542   4.188   5.467   2.185
 7667WAT     H123543   4.221   5.506   2.271
 7667WAT     H223544   4.264   5.460   2.120
 7668WAT      O23545   5.124   3.831   2.288
 7668WAT     H123546   5.100   3.794   2.198
 7668WAT     H223547   5.223   3.847   2.292
 7669WAT      O23548   3.973   5.509   3.103
 7669WAT     H123549   4.030   5.444   3.153
 7669WAT     H223550   3.957   5.476   3.010
 7670WAT      O23551   4.664   5.422   2.766
 7670WAT     H123552   4.744   5.365   2.787
 7670WAT     H223553   4.615   5.382   2.689
 7671WAT      O23554   4.106   4.424   2.342
 7671WAT     H123555   4.151   4.334   2.339
 7671WAT     H223556   4.012   4.413   2.375
 7672WAT      O23557   5.271   3.946   3.591
 7672WAT     H123558   5.266   3.983   3.683
 7672WAT     H223559   5.199   3.877   3.579
 7673WAT      O23560   4.338   3.846   1.979
 7673WAT     H123561   4.436   3.824   1.986
 7673WAT     H223562   4.307   3.829   1.886
 7674WAT      O23563   4.612   5.238   3.057
 7674WAT     H123564   4.589   5.213   2.963
 7674WAT     H223565   4.673   5.169   3.096
 7675WAT      O23566   5.075   4.314   3.295
 7675WAT     H123567   5.103   4.271   3.380
 7675WAT     H223568   5.100   4.410   3.296
 7676WAT      O23569   4.527   5.126   2.786
 7676WAT     H123570   4.617   5.140   2.744
 7676WAT     H223571   4.456   5.128   2.715
 7677WAT      O23572   4.646   4.227   2.761
 7677WAT     H123573   4.621   4.218   2.665
 7677WAT     H223574   4.694   4.145   2.792
 7678WAT      O23575   4.263   3.788   2.374
 7678WAT     H123576   4.182   3.789   2.432
 7678WAT     H223577   4.266   3.871   2.319
 7679WAT      O23578   5.158   4.912   1.903
 7679WAT     H123579   5.190   4.836   1.960
 7679WAT     H223580   5.066   4.939   1.933
 7680WAT      O23581   4.021   3.759   2.033
 7680WAT     H123582   4.070   3.843   2.012
 7680WAT     H223583   4.083   3.694   2.078
 7681WAT      O23584   4.659   3.960   2.342
 7681WAT     H123585   4.611   4.001   2.264
 7681WAT     H223586   4.758   3.958   2.323
 7682WAT      O23587   4.800   4.407   3.326
 7682WAT     H123588   4.720   4.346   3.329
 7682WAT     H223589   4.881   4.354   3.302
 7683WAT      O23590   4.951   5.294   2.655
 7683WAT     H123591   4.972   5.368   2.590
 7683WAT     H223592   5.019   5.294   2.728
 7684WAT      O23593   4.183   4.876   2.603
 7684WAT     H123594   4.112   4.849   2.668
 7684WAT     H223595   4.157   4.848   2.510
 7685WAT      O23596   4.995   5.521   2.453
 7685WAT     H123597   5.039   5.585   2.389
 7685WAT     H223598   4.945   5.573   2.523
 7686WAT      O23599   4.756   4.273   1.878
 7686WAT     H123600   4.715   4.355   1.839
 7686WAT     H223601   4.820   4.299   1.951
 7687WAT      O23602   3.802   4.280   3.248
 7687WAT     H123603   3.894   4.279   3.207
 7687WAT     H223604   3.796   4.354   3.315
 7688WAT      O23605   4.590   4.178   2.504
 7688WAT     H123606   4.558   4.250   2.442
 7688WAT     H223607   4.614   4.097   2.451
 7689WAT      O23608   4.741   3.763   2.615
 7689WAT     H123609   4.669   3.768   2.546
 7689WAT     H223610   4.717   3.694   2.684
 7690WAT      O23611   5.153   4.897   2.729
 7690WAT     H123612   5.098   4.813   2.722
 7690WAT     H223613   5.179   4.926   2.637
 7691WAT      O23614   5.190   4.314   2.854
 7691WAT     H123615   5.160   4.219   2.861
 7691WAT     H223616   5.263   4.330   2.920
 7692WAT      O23617   5.581   4.557   2.239
 7692WAT     H123618   5.623   4.493   2.303
 7692WAT     H223619   5.543   4.506   2.161
 7693WAT      O23620   4.212   5.109   2.036
 7693WAT     H123621   4.125   5.094   2.083
 7693WAT     H223622   4.195   5.135   1.941
 7694WAT      O23623   5.388   5.004   2.519
 7694WAT     H123624   5.487   5.012   2.533
 7694WAT     H223625   5.343   5.088   2.550
 7695WAT      O23626   5.114   4.299   1.940
 7695WAT     H123627   5.060   4.278   2.021
 7695WAT     H223628   5.205   4.258   1.949
 7696WAT      O23629   4.251   3.980   2.190
 7696WAT     H123630   4.278   3.921   2.115
 7696WAT     H223631   4.251   4.075   2.159
 7697WAT      O23632   5.478   4.947   3.450
 7697WAT     H123633   5.569   4.908   3.437
 7697WAT     H223634   5.486   5.043   3.474
 7698WAT      O23635   4.788   5.071   3.202
 7698WAT     H123636   4.708   5.048   3.257
 7698WAT     H223637   4.871   5.045   3.251
 7699WAT      O23638   5.316   5.353   3.487
 7699WAT     H123639   5.343   5.387   3.397
 7699WAT     H223640   5.395   5.315   3.533
 7700WAT      O23641   4.835   4.919   2.962
 7700WAT     H123642   4.795   4.963   3.043
 7700WAT     H223643   4.794   4.956   2.879
 7701WAT      O23644   5.362   4.823   2.941
 7701WAT     H123645   5.367   4.904   3.000
 7701WAT     H223646   5.276   4.825   2.890
 7702WAT      O23647   4.704   4.840   3.581
 7702WAT     H123648   4.605   4.846   3.591
 7702WAT     H223649   4.727   4.760   3.525
 7703WAT      O23650   4.429   4.774   2.230
 7703WAT     H123651   4.415   4.781   2.329
 7703WAT     H223652   4.513   4.723   2.212
 7704WAT      O23653   4.134   4.537   3.113
 7704WAT     H123654   4.220   4.549   3.163
 7704WAT     H223655   4.092   4.450   3.140
 7705WAT      O23656   4.998   4.110   3.124
 7705WAT     H123657   5.019   4.184   3.188
 7705WAT     H223658   4.909   4.127   3.081
 7706WAT      O23659   3.788   5.288   3.193
 7706WAT     H123660   3.742   5.370   3.159
 7706WAT     H223661   3.886   5.307   3.202
 7707WAT      O23662   4.091   4.824   2.363
 7707WAT     H123663   4.084   4.907   2.307
 7707WAT     H223664   4.095   4.744   2.303
 7708WAT      O23665   4.290   4.261   2.727
 7708WAT     H123666   4.302   4.327   2.653
 7708WAT     H223667   4.336   4.295   2.810
 7709WAT      O23668   4.976   5.072   2.250
 7709WAT     H123669   5.026   5.149   2.290
 7709WAT     H223670   4.881   5.074   2.282
 7710WAT      O23671   4.996   5.169   3.004
 7710WAT     H123672   5.043   5.182   3.091
 7710WAT     H223673   4.930   5.095   3.013
 7711WAT      O23674   5.306   4.363   2.334
 7711WAT     H123675   5.275   4.424   2.407
 7711WAT     H223676   5.356   4.415   2.265
 7712WAT      O23677   4.078   5.234   3.191
 7712WAT     H123678   4.057   5.190   3.104
 7712WAT     H223679   4.175   5.260   3.194
 7713WAT      O23680   4.126   4.475   3.460
 7713WAT     H123681   4.194   4.530   3.413
 7713WAT     H223682   4.166   4.387   3.487
 7714WAT      O23683   5.311   4.503   3.532
 7714WAT     H123684   5.219   4.541   3.527
 7714WAT     H223685   5.371   4.550   3.467
 7715WAT      O23686   4.737   3.829   3.632
 7715WAT     H123687   4.743   3.914   3.580
 7715WAT     H223688   4.769   3.753   3.575
 7716WAT      O23689   4.297   4.594   2.891
 7716WAT     H123690   4.341   4.683   2.882
 7716WAT     H223691   4.234   4.594   2.968
 7717WAT      O23692   5.084   4.586   2.907
 7717WAT     H123693   5.009   4.586   2.841
 7717WAT     H223694   5.121   4.494   2.916
 7718WAT      O23695   4.933   4.249   2.137
 7718WAT     H123696   4.946   4.165   2.191
 7718WAT     H223697   4.904   4.323   2.197
 7719WAT      O23698   3.761   5.034   3.144
 7719WAT     H123699   3.814   4.985   3.212
 7719WAT     H223700   3.783   5.132   3.149
 7720WAT      O23701   4.456   4.358   2.926
 7720WAT     H123702   4.515   4.332   2.850
 7720WAT     H223703   4.428   4.454   2.915
 7721WAT      O23704   5.452   4.659   3.716
 7721WAT     H123705   5.406   4.652   3.627
 7721WAT     H223706   5.390   4.703   3.782
 7722WAT      O23707   4.031   3.787   2.480
 7722WAT     H123708   4.020   3.881   2.513
 7722WAT     H223709   4.026   3.724   2.557
 7723WAT      O23710   5.346   4.091   2.236
 7723WAT     H123711   5.348   4.015   2.300
 7723WAT     H223712   5.298   4.168   2.276
 7724WAT      O23713   4.747   4.490   2.828
 7724WAT     H123714   4.762   4.511   2.924
 7724WAT     H223715   4.717   4.395   2.819
 7725WAT      O23716   4.704   5.297   3.562
 7725WAT     H123717   4.684   5.341   3.474
 7725WAT     H223718   4.743   5.206   3.546
 7726WAT      O23719   5.583   5.242   3.467
 7726WAT     H123720   5.597   5.269   3.372
 7726WAT     H223721   5.666   5.264   3.520
 7727WAT      O23722   4.074   4.622   3.666
 7727WAT     H123723   4.150   4.666   3.714
 7727WAT     H223724   4.109   4.575   3.584
 7728WAT      O23725   5.264   3.998   1.987
 7728WAT     H123726   5.203   3.923   2.010
 7728WAT     H223727   5.286   4.050   2.070
 7729WAT      O23728   5.027   4.562   1.904
 7729WAT     H123729   5.061   4.469   1.919
 7729WAT     H223730   5.045   4.589   1.809
 7730WAT      O23731   4.792   5.057   2.711
 7730WAT     H123732   4.799   4.973   2.656
 7730WAT     H223733   4.854   5.126   2.675
 7731WAT      O23734   4.043   4.534   2.811
 7731WAT     H123735   4.136   4.570   2.816
 7731WAT     H223736   4.037   4.449   2.863
 7732WAT      O23737   4.063   4.233   2.868
 7732WAT     H123738   4.011   4.150   2.851
 7732WAT     H223739   4.140   4.238   2.804
 7733WAT      O23740   4.862   4.104   3.540
 7733WAT     H123741   4.817   4.167   3.604
 7733WAT     H223742   4.955   4.135   3.523
 7734WAT      O23743   4.884   3.931   3.339
 7734WAT     H123744   4.884   3.995   3.416
 7734WAT     H223745   4.912   3.979   3.256
 7735WAT      O23746   3.732   5.050   2.062
 7735WAT     H123747   3.639   5.071   2.031
 7735WAT     H223748   3.742   4.951   2.075
 7736WAT      O23749   3.812   5.525   2.789
 7736WAT     H123750   3.770   5.439   2.762
 7736WAT     H223751   3.906   5.528   2.755
 7737WAT      O23752   4.228   5.292   2.772
 7737WAT     H123753   4.294   5.366   2.781
 7737WAT     H223754   4.272   5.213   2.730
 7738WAT      O23755   4.726   4.520   3.100
 7738WAT     H123756   4.767   4.488   3.186
 7738WAT     H223757   4.630   4.493   3.097
 7739WAT      O23758   3.764   4.268   2.976
 7739WAT     H123759   3.849   4.235   2.935
 7739WAT     H223760   3.777   4.283   3.074
 7740WAT      O23761   5.093   4.674   3.522
 7740WAT     H123762   5.132   4.763   3.542
 7740WAT     H223763   5.103   4.654   3.425
 7741WAT      O23764   4.539   4.296   2.187
 7741WAT     H123765   4.546   4.207   2.141
 7741WAT     H223766   4.445   4.330   2.179
 7742WAT      O23767   5.381   4.328   3.068
 7742WAT     H123768   5.343   4.259   3.130
 7742WAT     H223769   5.463   4.292   3.024
 7743WAT      O23770   3.976   5.288   3.606
 7743WAT     H123771   3.946   5.345   3.682
 7743WAT     H223772   3.969   5.191   3.632
 7744WAT      O23773   4.395   4.188   3.131
 7744WAT     H123774   4.361   4.099   3.101
 7744WAT     H223775   4.421   4.242   3.051
 7745WAT      O23776   4.654   5.402   3.327
 7745WAT     H123777   4.630   5.384   3.232
 7745WAT     H223778   4.684   5.496   3.337
 7746WAT      O23779   4.197   4.224   2.053
 7746WAT     H123780   4.258   4.304   2.057
 7746WAT     H223781   4.102   4.255   2.060
 7747WAT      O23782   3.883   4.861   3.328
 7747WAT     H123783   3.905   4.800   3.404
 7747WAT     H223784   3.893   4.812   3.242
 7748WAT      O23785   5.071   4.783   3.096
 7748WAT     H123786   5.095   4.720   3.022
 7748WAT     H223787   4.981   4.823   3.078
 7749WAT      O23788   5.026   4.579   2.171
 7749WAT     H123789   4.940   4.548   2.213
 7749WAT     H223790   5.022   4.565   2.072
 7750WAT      O23791   5.483   5.471   3.016
 7750WAT     H123792   5.544   5.501   2.943
 7750WAT     H223793   5.445   5.382   2.994
 7751WAT      O23794   4.976   5.455   2.990
 7751WAT     H123795   5.060   5.460   2.936
 7751WAT     H223796   4.953   5.359   3.008
 7752WAT      O23797   3.807   4.982   2.884
 7752WAT     H123798   3.802   4.981   2.984
 7752WAT     H223799   3.724   4.941   2.846
 7753WAT      O23800   4.412   5.386   3.578
 7753WAT     H123801   4.356   5.467   3.587
 7753WAT     H223802   4.464   5.390   3.492
 7754WAT      O23803   5.450   3.859   2.385
 7754WAT     H123804   5.523   3.842   2.318
 7754WAT     H223805   5.419   3.772   2.423
 7755WAT      O23806   5.112   5.297   2.339
 7755WAT     H123807   5.179   5.309   2.265
 7755WAT     H223808   5.072   5.386   2.362
 7756WAT      O23809   3.854   5.518   3.713
 7756WAT     H123810   3.813   5.444   3.766
 7756WAT     H223811   3.918   5.569   3.771
 7757WAT      O23812   5.004   4.651   2.534
 7757WAT     H123813   5.064   4.570   2.536
 7757WAT     H223814   5.044   4.720   2.474
 7758WAT      O23815   4.554   4.997   3.284
 7758WAT     H123816   4.549   5.030   3.379
 7758WAT     H223817   4.468   5.016   3.238
 7759WAT      O23818   4.396   5.340   2.016
 7759WAT     H123819   4.405   5.350   1.917
 7759WAT     H223820   4.356   5.251   2.037
 7760WAT      O23821   5.374   5.444   3.256
 7760WAT     H123822   5.427   5.454   3.172
 7760WAT     H223823   5.347   5.534   3.290
 7761WAT      O23824   5.565   3.899   2.825
 7761WAT     H123825   5.604   3.814   2.789
 7761WAT     H223826   5.467   3.901   2.806
 7762WAT      O23827   4.918   5.336   1.893
 7762WAT     H123828   4.924   5.243   1.930
 7762WAT     H223829   4.859   5.336   1.813
 7763WAT      O23830   4.546   4.726   3.234
 7763WAT     H123831   4.586   4.725   3.142
 7763WAT     H223832   4.556   4.818   3.274
 7764WAT      O23833   4.640   4.634   2.153
 7764WAT     H123834   4.703   4.672   2.085
 7764WAT     H223835   4.680   4.551   2.192
 7765WAT      O23836   5.228   5.331   1.906
 7765WAT     H123837   5.136   5.368   1.913
 7765WAT     H223838   5.266   5.351   1.816
 7766WAT      O23839   4.096   5.012   3.352
 7766WAT     H123840   4.083   5.105   3.318
 7766WAT     H223841   4.012   4.960   3.339
 7767WAT      O23842   5.338   5.016   3.151
 7767WAT     H123843   5.398   5.019   3.231
 7767WAT     H223844   5.263   5.080   3.164
 7768WAT      O23845   4.763   4.822   2.558
 7768WAT     H123846   4.693   4.775   2.612
 7768WAT     H223847   4.822   4.754   2.515
 7769WAT      O23848   4.738   3.960   2.833
 7769WAT     H123849   4.730   3.924   2.740
 7769WAT     H223850   4.736   3.884   2.898
 7770WAT      O23851   4.314   5.211   2.353
 7770WAT     H123852   4.356   5.153   2.283
 7770WAT     H223853   4.270   5.290   2.309
 7771WAT      O23854   5.433   4.109   3.243
 7771WAT     H123855   5.506   4.178   3.247
 7771WAT     H223856   5.461   4.034   3.184
 7772WAT      O23857   3.979   5.072   2.152
 7772WAT     H123858   3.883   5.073   2.125
 7772WAT     H223859   3.991   5.125   2.236
 7773WAT      O23860   3.829   4.737   3.588
 7773WAT     H123861   3.752   4.704   3.642
 7773WAT     H223862   3.914   4.707   3.630
 7774WAT      O23863   3.799   4.069   1.895
 7774WAT     H123864   3.707   4.041   1.866
 7774WAT     H223865   3.830   4.146   1.839
 7775WAT      O23866   5.164   4.580   3.260
 7775WAT     H123867   5.107   4.632   3.197
 7775WAT     H223868   5.260   4.592   3.236
 7776WAT      O23869   3.796   3.890   2.180
 7776WAT     H123870   3.779   3.973   2.126
 7776WAT     H223871   3.886   3.853   2.158
 7777WAT      O23872   4.907   5.059   1.981
 7777WAT     H123873   4.808   5.048   1.983
 7777WAT     H223874   4.941   5.074   2.074
 7778WAT      O23875   4.337   4.566   3.293
 7778WAT     H123876   4.393   4.647   3.276
 7778WAT     H223877   4.396   4.486   3.296
 7779WAT      O23878   5.217   5.491   2.821
 7779WAT     H123879   5.250   5.555   2.752
 7779WAT     H223880   5.283   5.485   2.896
 7780WAT      O23881   5.174   4.944   3.495
 7780WAT     H123882   5.165   4.934   3.594
 7780WAT     H223883   5.270   4.937   3.469
 7781WAT      O23884   4.114   5.465   3.422
 7781WAT     H123885   4.023   5.506   3.420
 7781WAT     H223886   4.107   5.371   3.454
 7782WAT      O23887   5.398   4.607   3.116
 7782WAT     H123888   5.371   4.518   3.079
 7782WAT     H223889   5.399   4.675   3.043
 7783WAT      O23890   4.949   4.049   2.311
 7783WAT     H123891   5.014   3.975   2.300
 7783WAT     H223892   4.969   4.099   2.395
 7784WAT      O23893   4.318   4.469   2.514
 7784WAT     H123894   4.368   4.554   2.495
 7784WAT     H223895   4.230   4.471   2.466
 7785WAT      O23896   5.501   4.066   3.504
 7785WAT     H123897   5.484   4.097   3.410
 7785WAT     H223898   5.417   4.029   3.542
 7786WAT      O23899   5.454   4.658   3.379
 7786WAT     H123900   5.492   4.749   3.394
 7786WAT     H223901   5.446   4.641   3.280
 7787WAT      O23902   4.583   5.098   1.878
 7787WAT     H123903   4.537   5.113   1.966
 7787WAT     H223904   4.627   5.183   1.848
 7788WAT      O23905   4.385   5.514   2.815
 7788WAT     H123906   4.339   5.602   2.802
 7788WAT     H223907   4.484   5.526   2.808
 7789WAT      O23908   4.583   4.680   2.723
 7789WAT     H123909   4.637   4.611   2.771
 7789WAT     H223910   4.551   4.749   2.789
 7790WAT      O23911   4.807   4.708   1.949
 7790WAT     H123912   4.784   4.761   1.867
 7790WAT     H223913   4.888   4.652   1.930
 7791WAT      O23914   5.585   5.293   2.713
 7791WAT     H123915   5.514   5.281   2.643
 7791WAT     H223916   5.586   5.214   2.773
 7792WAT      O23917   3.945   5.038   3.706
 7792WAT     H123918   3.880   4.965   3.685
 7792WAT     H223919   3.949   5.052   3.804
 7793WAT      O23920   3.803   4.964   2.515
 7793WAT     H123921   3.802   4.917   2.603
 7793WAT     H223922   3.885   4.936   2.464
 7794WAT      O23923   4.396   5.115   3.486
 7794WAT     H123924   4.318   5.065   3.524
 7794WAT     H223925   4.393   5.210   3.517
 7795WAT      O23926   5.548   3.916   3.089
 7795WAT     H123927   5.544   3.826   3.133
 7795WAT     H223928   5.551   3.905   2.990
 7796WAT      O23929   4.152   4.148   2.382
 7796WAT     H123930   4.182   4.076   2.320
 7796WAT     H223931   4.113   4.108   2.465
 7797WAT      O23932   5.429   5.211   2.966
 7797WAT     H123933   5.336   5.186   2.939
 7797WAT     H223934   5.455   5.161   3.048
 7798WAT      O23935   4.041   4.271   3.142
 7798WAT     H123936   4.079   4.212   3.214
 7798WAT     H223937   4.081   4.245   3.054
 7799WAT      O23938   4.536   5.310   2.549
 7799WAT     H123939   4.568   5.320   2.455
 7799WAT     H223940   4.457   5.248   2.551
 7800WAT      O23941   5.148   3.938   2.974
 7800WAT     H123942   5.200   3.873   3.029
 7800WAT     H223943   5.099   4.001   3.035
 7801WAT      O23944   4.725   3.758   3.016
 7801WAT     H123945   4.662   3.686   2.985
 7801WAT     H223946   4.818   3.722   3.016
 7802WAT      O23947   4.494   5.054   2.163
 7802WAT     H123948   4.448   4.967   2.180
 7802WAT     H223949   4.585   5.051   2.204
 7803WAT      O23950   4.342   5.291   3.146
 7803WAT     H123951   4.337   5.373   3.203
 7803WAT     H223952   4.431   5.288   3.101
 7804WAT      O23953   5.076   3.776   2.030
 7804WAT     H123954   5.111   3.735   1.946
 7804WAT     H223955   4.986   3.738   2.050
 7805WAT      O23956   5.024   4.177   2.553
 7805WAT     H123957   4.965   4.257   2.557
 7805WAT     H223958   5.039   4.142   2.646
 7806WAT      O23959   5.317   3.945   2.744
 7806WAT     H123960   5.233   3.944   2.798
 7806WAT     H223961   5.319   4.028   2.688
 7807WAT      O23962   3.763   4.801   2.162
 7807WAT     H123963   3.862   4.790   2.153
 7807WAT     H223964   3.723   4.715   2.194
 7808WAT      O23965   4.599   5.370   2.199
 7808WAT     H123966   4.522   5.335   2.145
 7808WAT     H223967   4.567   5.441   2.261
 7809WAT      O23968   3.949   3.999   4.720
 7809WAT     H123969   3.984   3.982   4.812
 7809WAT     H223970   3.861   3.954   4.708
 7810WAT      O23971   3.743   4.092   4.371
 7810WAT     H123972   3.661   4.135   4.410
 7810WAT     H223973   3.715   4.019   4.308
 7811WAT      O23974   4.293   4.999   4.889
 7811WAT     H123975   4.200   4.992   4.852
 7811WAT     H223976   4.304   5.088   4.933
 7812WAT      O23977   5.279   5.235   4.427
 7812WAT     H123978   5.222   5.219   4.508
 7812WAT     H223979   5.220   5.245   4.347
 7813WAT      O23980   4.859   4.427   4.441
 7813WAT     H123981   4.916   4.505   4.416
 7813WAT     H223982   4.799   4.453   4.517
 7814WAT      O23983   5.479   4.331   3.955
 7814WAT     H123984   5.467   4.318   3.856
 7814WAT     H223985   5.449   4.250   4.004
 7815WAT      O23986   4.492   4.868   4.747
 7815WAT     H123987   4.414   4.885   4.807
 7815WAT     H223988   4.526   4.955   4.711
 7816WAT      O23989   4.574   4.522   5.547
 7816WAT     H123990   4.570   4.598   5.612
 7816WAT     H223991   4.596   4.558   5.456
 7817WAT      O23992   4.409   4.736   4.389
 7817WAT     H123993   4.478   4.720   4.459
 7817WAT     H223994   4.336   4.793   4.427
 7818WAT      O23995   4.410   4.885   5.527
 7818WAT     H123996   4.470   4.964   5.541
 7818WAT     H223997   4.324   4.916   5.486
 7819WAT      O23998   4.059   5.159   4.785
 7819WAT     H123999   3.981   5.128   4.732
 7819WAT     H224000   4.117   5.217   4.728
 7820WAT      O24001   5.184   5.229   5.063
 7820WAT     H124002   5.208   5.323   5.089
 7820WAT     H224003   5.168   5.175   5.145
 7821WAT      O24004   4.162   4.116   5.223
 7821WAT     H124005   4.244   4.060   5.232
 7821WAT     H224006   4.081   4.058   5.227
 7822WAT      O24007   5.327   4.171   4.461
 7822WAT     H124008   5.253   4.217   4.411
 7822WAT     H224009   5.378   4.239   4.514
 7823WAT      O24010   3.955   5.437   4.207
 7823WAT     H124011   3.989   5.514   4.261
 7823WAT     H224012   3.999   5.437   4.117
 7824WAT      O24013   4.851   5.065   5.414
 7824WAT     H124014   4.898   5.065   5.502
 7824WAT     H224015   4.803   4.978   5.403
 7825WAT      O24016   3.954   5.158   4.262
 7825WAT     H124017   3.928   5.254   4.262
 7825WAT     H224018   3.883   5.104   4.307
 7826WAT      O24019   3.964   4.815   4.610
 7826WAT     H124020   3.978   4.731   4.662
 7826WAT     H224021   3.909   4.879   4.665
 7827WAT      O24022   4.344   5.510   5.163
 7827WAT     H124023   4.252   5.493   5.198
 7827WAT     H224024   4.372   5.602   5.189
 7828WAT      O24025   4.330   4.688   3.847
 7828WAT     H124026   4.337   4.772   3.793
 7828WAT     H224027   4.376   4.701   3.935
 7829WAT      O24028   5.318   3.838   5.204
 7829WAT     H124029   5.300   3.905   5.132
 7829WAT     H224030   5.315   3.884   5.293
 7830WAT      O24031   3.846   4.367   4.287
 7830WAT     H124032   3.801   4.279   4.304
 7830WAT     H224033   3.845   4.421   4.371
 7831WAT      O24034   5.566   5.491   4.083
 7831WAT     H124035   5.620   5.462   4.163
 7831WAT     H224036   5.596   5.581   4.054
 7832WAT      O24037   3.751   5.320   3.841
 7832WAT     H124038   3.732   5.224   3.862
 7832WAT     H224039   3.718   5.378   3.916
 7833WAT      O24040   5.413   4.646   4.336
 7833WAT     H124041   5.508   4.617   4.344
 7833WAT     H224042   5.405   4.711   4.261
 7834WAT      O24043   5.365   4.832   4.156
 7834WAT     H124044   5.451   4.834   4.104
 7834WAT     H224045   5.379   4.879   4.244
 7835WAT      O24046   3.837   4.461   5.321
 7835WAT     H124047   3.925   4.448   5.366
 7835WAT     H224048   3.824   4.558   5.299
 7836WAT      O24049   4.337   5.089   4.450
 7836WAT     H124050   4.288   5.002   4.459
 7836WAT     H224051   4.314   5.132   4.363
 7837WAT      O24052   5.017   4.952   5.147
 7837WAT     H124053   5.054   4.879   5.089
 7837WAT     H224054   5.069   4.957   5.232
 7838WAT      O24055   4.533   3.728   4.226
 7838WAT     H124056   4.573   3.819   4.217
 7838WAT     H224057   4.433   3.736   4.232
 7839WAT      O24058   3.921   4.700   4.988
 7839WAT     H124059   4.010   4.655   4.974
 7839WAT     H224060   3.848   4.635   4.969
 7840WAT      O24061   5.249   4.723   3.914
 7840WAT     H124062   5.186   4.647   3.927
 7840WAT     H224063   5.297   4.741   4.000
 7841WAT      O24064   4.911   5.516   5.340
 7841WAT     H124065   4.935   5.576   5.264
 7841WAT     H224066   4.918   5.421   5.310
 7842WAT      O24067   4.041   3.975   5.525
 7842WAT     H124068   4.112   4.046   5.531
 7842WAT     H224069   3.953   4.014   5.553
 7843WAT      O24070   5.190   5.141   4.677
 7843WAT     H124071   5.131   5.147   4.757
 7843WAT     H224072   5.175   5.053   4.631
 7844WAT      O24073   5.391   5.438   4.296
 7844WAT     H124074   5.350   5.415   4.208
 7844WAT     H224075   5.373   5.364   4.361
 7845WAT      O24076   4.322   4.453   3.994
 7845WAT     H124077   4.346   4.522   3.926
 7845WAT     H224078   4.244   4.486   4.048
 7846WAT      O24079   5.005   4.069   4.668
 7846WAT     H124080   4.919   4.019   4.655
 7846WAT     H224081   5.067   4.015   4.724
 7847WAT      O24082   5.300   5.386   4.031
 7847WAT     H124083   5.389   5.432   4.034
 7847WAT     H224084   5.279   5.362   3.936
 7848WAT      O24085   4.531   4.329   5.189
 7848WAT     H124086   4.484   4.326   5.278
 7848WAT     H224087   4.480   4.274   5.123
 7849WAT      O24088   5.118   4.193   5.398
 7849WAT     H124089   5.098   4.236   5.486
 7849WAT     H224090   5.196   4.131   5.407
 7850WAT      O24091   4.697   4.614   5.296
 7850WAT     H124092   4.743   4.530   5.267
 7850WAT     H224093   4.641   4.648   5.221
 7851WAT      O24094   4.715   4.134   4.966
 7851WAT     H124095   4.638   4.168   5.020
 7851WAT     H224096   4.681   4.083   4.887
 7852WAT      O24097   4.765   4.425   4.153
 7852WAT     H124098   4.791   4.421   4.249
 7852WAT     H224099   4.680   4.374   4.139
 7853WAT      O24100   3.800   4.535   4.513
 7853WAT     H124101   3.899   4.523   4.522
 7853WAT     H224102   3.776   4.630   4.534
 7854WAT      O24103   3.854   5.545   5.295
 7854WAT     H124104   3.844   5.530   5.394
 7854WAT     H224105   3.768   5.581   5.259
 7855WAT      O24106   4.589   4.072   3.919
 7855WAT     H124107   4.648   4.135   3.870
 7855WAT     H224108   4.608   3.978   3.890
 7856WAT      O24109   5.443   4.309   5.555
 7856WAT     H124110   5.417   4.398   5.519
 7856WAT     H224111   5.441   4.241   5.482
 7857WAT      O24112   5.086   4.868   4.269
 7857WAT     H124113   5.169   4.839   4.221
 7857WAT     H224114   5.037   4.935   4.213
 7858WAT      O24115   4.274   3.920   4.609
 7858WAT     H124116   4.269   3.915   4.709
 7858WAT     H224117   4.276   4.016   4.580
 7859WAT      O24118   4.732   5.180   4.201
 7859WAT     H124119   4.686   5.252   4.149
 7859WAT     H224120   4.728   5.200   4.299
 7860WAT      O24121   4.075   5.525   4.577
 7860WAT     H124122   4.125   5.439   4.583
 7860WAT     H224123   4.140   5.602   4.574
 7861WAT      O24124   5.519   4.790   4.597
 7861WAT     H124125   5.457   4.775   4.521
 7861WAT     H224126   5.467   4.801   4.682
 7862WAT      O24127   4.951   5.274   5.230
 7862WAT     H124128   4.957   5.197   5.294
 7862WAT     H224129   4.899   5.248   5.150
 7863WAT      O24130   4.045   4.667   3.966
 7863WAT     H124131   4.127   4.706   3.924
 7863WAT     H224132   4.018   4.585   3.917
 7864WAT      O24133   5.182   4.459   4.452
 7864WAT     H124134   5.177   4.394   4.527
 7864WAT     H224135   5.262   4.518   4.465
 7865WAT      O24136   4.185   4.990   5.451
 7865WAT     H124137   4.135   4.991   5.365
 7865WAT     H224138   4.122   4.972   5.527
 7866WAT      O24139   4.835   5.500   3.961
 7866WAT     H124140   4.775   5.438   4.011
 7866WAT     H224141   4.866   5.456   3.876
 7867WAT      O24142   3.926   4.009   5.222
 7867WAT     H124143   3.846   4.069   5.209
 7867WAT     H224144   3.916   3.960   5.308
 7868WAT      O24145   5.356   5.101   3.805
 7868WAT     H124146   5.324   5.195   3.795
 7868WAT     H224147   5.280   5.038   3.793
 7869WAT      O24148   4.188   5.467   4.047
 7869WAT     H124149   4.221   5.506   4.133
 7869WAT     H224150   4.264   5.460   3.982
 7870WAT      O24151   5.124   3.831   4.150
 7870WAT     H124152   5.100   3.794   4.060
 7870WAT     H224153   5.223   3.847   4.154
 7871WAT      O24154   3.973   5.509   4.965
 7871WAT     H124155   4.030   5.444   5.015
 7871WAT     H224156   3.957   5.476   4.872
 7872WAT      O24157   4.664   5.422   4.628
 7872WAT     H124158   4.744   5.365   4.649
 7872WAT     H224159   4.615   5.382   4.551
 7873WAT      O24160   4.106   4.424   4.204
 7873WAT     H124161   4.151   4.334   4.201
 7873WAT     H224162   4.012   4.413   4.237
 7874WAT      O24163   5.271   3.946   5.453
 7874WAT     H124164   5.266   3.983   5.545
 7874WAT     H224165   5.199   3.877   5.441
 7875WAT      O24166   4.505   3.988   5.473
 7875WAT     H124167   4.572   3.927   5.516
 7875WAT     H224168   4.432   4.007   5.538
 7876WAT      O24169   4.612   5.238   4.919
 7876WAT     H124170   4.589   5.213   4.825
 7876WAT     H224171   4.673   5.169   4.958
 7877WAT      O24172   5.075   4.314   5.157
 7877WAT     H124173   5.103   4.271   5.242
 7877WAT     H224174   5.100   4.410   5.158
 7878WAT      O24175   4.527   5.126   4.648
 7878WAT     H124176   4.617   5.140   4.606
 7878WAT     H224177   4.456   5.128   4.577
 7879WAT      O24178   4.646   4.227   4.623
 7879WAT     H124179   4.621   4.218   4.527
 7879WAT     H224180   4.694   4.145   4.654
 7880WAT      O24181   4.263   3.788   4.236
 7880WAT     H124182   4.182   3.789   4.294
 7880WAT     H224183   4.266   3.871   4.181
 7881WAT      O24184   5.158   4.912   3.765
 7881WAT     H124185   5.190   4.836   3.822
 7881WAT     H224186   5.066   4.939   3.795
 7882WAT      O24187   4.659   3.960   4.204
 7882WAT     H124188   4.611   4.001   4.126
 7882WAT     H224189   4.758   3.958   4.185
 7883WAT      O24190   4.800   4.407   5.188
 7883WAT     H124191   4.720   4.346   5.191
 7883WAT     H224192   4.881   4.354   5.164
 7884WAT      O24193   4.951   5.294   4.517
 7884WAT     H124194   4.972   5.368   4.452
 7884WAT     H224195   5.019   5.294   4.590
 7885WAT      O24196   4.183   4.876   4.465
 7885WAT     H124197   4.112   4.849   4.530
 7885WAT     H224198   4.157   4.848   4.372
 7886WAT      O24199   4.995   5.521   4.315
 7886WAT     H124200   5.039   5.585   4.251
 7886WAT     H224201   4.945   5.573   4.385
 7887WAT      O24202   4.756   4.273   3.740
 7887WAT     H124203   4.715   4.355   3.701
 7887WAT     H224204   4.820   4.299   3.813
 7888WAT      O24205   3.802   4.280   5.110
 7888WAT     H124206   3.894   4.279   5.069
 7888WAT     H224207   3.796   4.354   5.177
 7889WAT      O24208   4.285   3.946   4.871
 7889WAT     H124209   4.323   3.862   4.908
 7889WAT     H224210   4.197   3.965   4.915
 7890WAT      O24211   4.590   4.178   4.366
 7890WAT     H124212   4.558   4.250   4.304
 7890WAT     H224213   4.614   4.097   4.313
 7891WAT      O24214   4.741   3.763   4.477
 7891WAT     H124215   4.669   3.768   4.408
 7891WAT     H224216   4.717   3.694   4.546
 7892WAT      O24217   5.153   4.897   4.591
 7892WAT     H124218   5.098   4.813   4.584
 7892WAT     H224219   5.179   4.926   4.499
 7893WAT      O24220   5.190   4.314   4.716
 7893WAT     H124221   5.160   4.219   4.723
 7893WAT     H224222   5.263   4.330   4.782
 7894WAT      O24223   5.581   4.557   4.101
 7894WAT     H124224   5.623   4.493   4.165
 7894WAT     H224225   5.543   4.506   4.023
 7895WAT      O24226   4.212   5.109   3.898
 7895WAT     H124227   4.125   5.094   3.945
 7895WAT     H224228   4.195   5.135   3.803
 7896WAT      O24229   5.388   5.004   4.381
 7896WAT     H124230   5.487   5.012   4.395
 7896WAT     H224231   5.343   5.088   4.412
 7897WAT      O24232   5.114   4.299   3.802
 7897WAT     H124233   5.060   4.278   3.883
 7897WAT     H224234   5.205   4.258   3.811
 7898WAT      O24235   4.251   3.980   4.052
 7898WAT     H124236   4.278   3.921   3.977
 7898WAT     H224237   4.251   4.075   4.021
 7899WAT      O24238   5.478   4.947   5.312
 7899WAT     H124239   5.569   4.908   5.299
 7899WAT     H224240   5.486   5.043   5.336
 7900WAT      O24241   4.788   5.071   5.064
 7900WAT     H124242   4.708   5.048   5.119
 7900WAT     H224243   4.871   5.045   5.113
 7901WAT      O24244   5.316   5.353   5.349
 7901WAT     H124245   5.343   5.387   5.259
 7901WAT     H224246   5.395   5.315   5.395
 7902WAT      O24247   4.835   4.919   4.824
 7902WAT     H124248   4.795   4.963   4.905
 7902WAT     H224249   4.794   4.956   4.741
 7903WAT      O24250   5.362   4.823   4.803
 7903WAT     H124251   5.367   4.904   4.862
 7903WAT     H224252   5.276   4.825   4.752
 7904WAT      O24253   4.639   3.813   5.126
 7904WAT     H124254   4.664   3.793   5.031
 7904WAT     H224255   4.711   3.869   5.168
 7905WAT      O24256   4.704   4.840   5.443
 7905WAT     H124257   4.605   4.846   5.453
 7905WAT     H224258   4.727   4.760   5.387
 7906WAT      O24259   4.429   4.774   4.092
 7906WAT     H124260   4.415   4.781   4.191
 7906WAT     H224261   4.513   4.723   4.074
 7907WAT      O24262   4.134   4.537   4.975
 7907WAT     H124263   4.220   4.549   5.025
 7907WAT     H224264   4.092   4.450   5.002
 7908WAT      O24265   4.998   4.110   4.986
 7908WAT     H124266   5.019   4.184   5.050
 7908WAT     H224267   4.909   4.127   4.943
 7909WAT      O24268   3.788   5.288   5.055
 7909WAT     H124269   3.742   5.370   5.021
 7909WAT     H224270   3.886   5.307   5.064
 7910WAT      O24271   4.091   4.824   4.225
 7910WAT     H124272   4.084   4.907   4.169
 7910WAT     H224273   4.095   4.744   4.165
 7911WAT      O24274   4.290   4.261   4.589
 7911WAT     H124275   4.302   4.327   4.515
 7911WAT     H224276   4.336   4.295   4.672
 7912WAT      O24277   4.976   5.072   4.112
 7912WAT     H124278   5.026   5.149   4.152
 7912WAT     H224279   4.881   5.074   4.144
 7913WAT      O24280   4.996   5.169   4.866
 7913WAT     H124281   5.043   5.182   4.953
 7913WAT     H224282   4.930   5.095   4.875
 7914WAT      O24283   5.306   4.363   4.196
 7914WAT     H124284   5.275   4.424   4.269
 7914WAT     H224285   5.356   4.415   4.127
 7915WAT      O24286   4.078   5.234   5.053
 7915WAT     H124287   4.057   5.190   4.966
 7915WAT     H224288   4.175   5.260   5.056
 7916WAT      O24289   4.126   4.475   5.322
 7916WAT     H124290   4.194   4.530   5.275
 7916WAT     H224291   4.166   4.387   5.349
 7917WAT      O24292   5.311   4.503   5.394
 7917WAT     H124293   5.219   4.541   5.389
 7917WAT     H224294   5.371   4.550   5.329
 7918WAT      O24295   4.737   3.829   5.494
 7918WAT     H124296   4.743   3.914   5.442
 7918WAT     H224297   4.769   3.753   5.437
 7919WAT      O24298   4.228   3.774   5.464
 7919WAT     H124299   4.186   3.717   5.394
 7919WAT     H224300   4.162   3.843   5.496
 7920WAT      O24301   4.297   4.594   4.753
 7920WAT     H124302   4.341   4.683   4.744
 7920WAT     H224303   4.234   4.594   4.830
 7921WAT      O24304   5.084   4.586   4.769
 7921WAT     H124305   5.009   4.586   4.703
 7921WAT     H224306   5.121   4.494   4.778
 7922WAT      O24307   4.933   4.249   3.999
 7922WAT     H124308   4.946   4.165   4.053
 7922WAT     H224309   4.904   4.323   4.059
 7923WAT      O24310   4.031   3.937   4.955
 7923WAT     H124311   4.008   3.974   5.045
 7923WAT     H224312   4.001   3.842   4.949
 7924WAT      O24313   3.761   5.034   5.006
 7924WAT     H124314   3.814   4.985   5.074
 7924WAT     H224315   3.783   5.132   5.011
 7925WAT      O24316   4.456   4.358   4.788
 7925WAT     H124317   4.515   4.332   4.712
 7925WAT     H224318   4.428   4.454   4.777
 7926WAT      O24319   5.452   4.659   5.578
 7926WAT     H124320   5.406   4.652   5.489
 7926WAT     H224321   5.390   4.703   5.644
 7927WAT      O24322   4.031   3.787   4.342
 7927WAT     H124323   4.020   3.881   4.375
 7927WAT     H224324   4.026   3.724   4.419
 7928WAT      O24325   5.346   4.091   4.098
 7928WAT     H124326   5.348   4.015   4.162
 7928WAT     H224327   5.298   4.168   4.138
 7929WAT      O24328   4.747   4.490   4.690
 7929WAT     H124329   4.762   4.511   4.786
 7929WAT     H224330   4.717   4.395   4.681
 7930WAT      O24331   4.704   5.297   5.424
 7930WAT     H124332   4.684   5.341   5.336
 7930WAT     H224333   4.743   5.206   5.408
 7931WAT      O24334   5.583   5.242   5.329
 7931WAT     H124335   5.597   5.269   5.234
 7931WAT     H224336   5.666   5.264   5.382
 7932WAT      O24337   4.074   4.622   5.528
 7932WAT     H124338   4.150   4.666   5.576
 7932WAT     H224339   4.109   4.575   5.446
 7933WAT      O24340   5.264   3.998   3.849
 7933WAT     H124341   5.203   3.923   3.872
 7933WAT     H224342   5.286   4.050   3.932
 7934WAT      O24343   5.027   4.562   3.766
 7934WAT     H124344   5.061   4.469   3.781
 7934WAT     H224345   5.045   4.589   3.671
 7935WAT      O24346   4.792   5.057   4.573
 7935WAT     H124347   4.799   4.973   4.518
 7935WAT     H224348   4.854   5.126   4.537
 7936WAT      O24349   4.043   4.534   4.673
 7936WAT     H124350   4.136   4.570   4.678
 7936WAT     H224351   4.037   4.449   4.725
 7937WAT      O24352   4.063   4.233   4.730
 7937WAT     H124353   4.011   4.150   4.713
 7937WAT     H224354   4.140   4.238   4.666
 7938WAT      O24355   4.862   4.104   5.402
 7938WAT     H124356   4.817   4.167   5.466
 7938WAT     H224357   4.955   4.135   5.385
 7939WAT      O24358   4.884   3.931   5.201
 7939WAT     H124359   4.884   3.995   5.278
 7939WAT     H224360   4.912   3.979   5.118
 7940WAT      O24361   3.732   5.050   3.924
 7940WAT     H124362   3.639   5.071   3.893
 7940WAT     H224363   3.742   4.951   3.937
 7941WAT      O24364   3.812   5.525   4.651
 7941WAT     H124365   3.770   5.439   4.624
 7941WAT     H224366   3.906   5.528   4.617
 7942WAT      O24367   4.228   5.292   4.634
 7942WAT     H124368   4.294   5.366   4.643
 7942WAT     H224369   4.272   5.213   4.592
 7943WAT      O24370   4.726   4.520   4.962
 7943WAT     H124371   4.767   4.488   5.048
 7943WAT     H224372   4.630   4.493   4.959
 7944WAT      O24373   3.764   4.268   4.838
 7944WAT     H124374   3.849   4.235   4.797
 7944WAT     H224375   3.777   4.283   4.936
 7945WAT      O24376   3.913   4.244   5.446
 7945WAT     H124377   3.972   4.204   5.376
 7945WAT     H224378   3.855   4.315   5.405
 7946WAT      O24379   5.093   4.674   5.384
 7946WAT     H124380   5.132   4.763   5.404
 7946WAT     H224381   5.103   4.654   5.287
 7947WAT      O24382   4.539   4.296   4.049
 7947WAT     H124383   4.546   4.207   4.003
 7947WAT     H224384   4.445   4.330   4.041
 7948WAT      O24385   5.381   4.328   4.930
 7948WAT     H124386   5.343   4.259   4.992
 7948WAT     H224387   5.463   4.292   4.886
 7949WAT      O24388   3.976   5.288   5.468
 7949WAT     H124389   3.946   5.345   5.544
 7949WAT     H224390   3.969   5.191   5.494
 7950WAT      O24391   4.395   4.188   4.993
 7950WAT     H124392   4.361   4.099   4.963
 7950WAT     H224393   4.421   4.242   4.913
 7951WAT      O24394   4.654   5.402   5.189
 7951WAT     H124395   4.630   5.384   5.094
 7951WAT     H224396   4.684   5.496   5.199
 7952WAT      O24397   3.883   4.861   5.190
 7952WAT     H124398   3.905   4.800   5.266
 7952WAT     H224399   3.893   4.812   5.104
 7953WAT      O24400   5.071   4.783   4.958
 7953WAT     H124401   5.095   4.720   4.884
 7953WAT     H224402   4.981   4.823   4.940
 7954WAT      O24403   5.026   4.579   4.033
 7954WAT     H124404   4.940   4.548   4.075
 7954WAT     H224405   5.022   4.565   3.934
 7955WAT      O24406   5.483   5.471   4.878
 7955WAT     H124407   5.544   5.501   4.805
 7955WAT     H224408   5.445   5.382   4.856
 7956WAT      O24409   4.976   5.455   4.852
 7956WAT     H124410   5.060   5.460   4.798
 7956WAT     H224411   4.953   5.359   4.870
 7957WAT      O24412   3.807   4.982   4.746
 7957WAT     H124413   3.802   4.981   4.846
 7957WAT     H224414   3.724   4.941   4.708
 7958WAT      O24415   4.412   5.386   5.440
 7958WAT     H124416   4.356   5.467   5.449
 7958WAT     H224417   4.464   5.390   5.354
 7959WAT      O24418   5.450   3.859   4.247
 7959WAT     H124419   5.523   3.842   4.180
 7959WAT     H224420   5.419   3.772   4.285
 7960WAT      O24421   5.112   5.297   4.201
 7960WAT     H124422   5.179   5.309   4.127
 7960WAT     H224423   5.072   5.386   4.224
 7961WAT      O24424   3.854   5.518   5.575
 7961WAT     H124425   3.813   5.444   5.628
 7961WAT     H224426   3.918   5.569   5.633
 7962WAT      O24427   5.004   4.651   4.396
 7962WAT     H124428   5.064   4.570   4.398
 7962WAT     H224429   5.044   4.720   4.336
 7963WAT      O24430   4.554   4.997   5.146
 7963WAT     H124431   4.549   5.030   5.241
 7963WAT     H224432   4.468   5.016   5.100
 7964WAT      O24433   4.396   5.340   3.878
 7964WAT     H124434   4.405   5.350   3.779
 7964WAT     H224435   4.356   5.251   3.899
 7965WAT      O24436   5.374   5.444   5.118
 7965WAT     H124437   5.427   5.454   5.034
 7965WAT     H224438   5.347   5.534   5.152
 7966WAT      O24439   5.565   3.899   4.687
 7966WAT     H124440   5.604   3.814   4.651
 7966WAT     H224441   5.467   3.901   4.668
 7967WAT      O24442   3.987   4.050   4.444
 7967WAT     H124443   3.908   4.101   4.410
 7967WAT     H224444   3.978   4.035   4.542
 7968WAT      O24445   4.918   5.336   3.755
 7968WAT     H124446   4.924   5.243   3.792
 7968WAT     H224447   4.859   5.336   3.675
 7969WAT      O24448   4.546   4.726   5.096
 7969WAT     H124449   4.586   4.725   5.004
 7969WAT     H224450   4.556   4.818   5.136
 7970WAT      O24451   4.640   4.634   4.015
 7970WAT     H124452   4.703   4.672   3.947
 7970WAT     H224453   4.680   4.551   4.054
 7971WAT      O24454   5.228   5.331   3.768
 7971WAT     H124455   5.136   5.368   3.775
 7971WAT     H224456   5.266   5.351   3.678
 7972WAT      O24457   4.096   5.012   5.214
 7972WAT     H124458   4.083   5.105   5.180
 7972WAT     H224459   4.012   4.960   5.201
 7973WAT      O24460   5.338   5.016   5.013
 7973WAT     H124461   5.398   5.019   5.093
 7973WAT     H224462   5.263   5.080   5.026
 7974WAT      O24463   4.763   4.822   4.420
 7974WAT     H124464   4.693   4.775   4.474
 7974WAT     H224465   4.822   4.754   4.377
 7975WAT      O24466   4.738   3.960   4.695
 7975WAT     H124467   4.730   3.924   4.602
 7975WAT     H224468   4.736   3.884   4.760
 7976WAT      O24469   4.314   5.211   4.215
 7976WAT     H124470   4.356   5.153   4.145
 7976WAT     H224471   4.270   5.290   4.171
 7977WAT      O24472   5.433   4.109   5.105
 7977WAT     H124473   5.506   4.178   5.109
 7977WAT     H224474   5.461   4.034   5.046
 7978WAT      O24475   3.979   5.072   4.014
 7978WAT     H124476   3.883   5.073   3.987
 7978WAT     H224477   3.991   5.125   4.098
 7979WAT      O24478   3.829   4.737   5.450
 7979WAT     H124479   3.752   4.704   5.504
 7979WAT     H224480   3.914   4.707   5.492
 7980WAT      O24481   4.396   3.927   5.213
 7980WAT     H124482   4.486   3.911   5.173
 7980WAT     H224483   4.404   3.932   5.312
 7981WAT      O24484   5.164   4.580   5.122
 7981WAT     H124485   5.107   4.632   5.059
 7981WAT     H224486   5.260   4.592   5.098
 7982WAT      O24487   4.907   5.059   3.843
 7982WAT     H124488   4.808   5.048   3.845
 7982WAT     H224489   4.941   5.074   3.936
 7983WAT      O24490   4.337   4.566   5.155
 7983WAT     H124491   4.393   4.647   5.138
 7983WAT     H224492   4.396   4.486   5.158
 7984WAT      O24493   5.217   5.491   4.683
 7984WAT     H124494   5.250   5.555   4.614
 7984WAT     H224495   5.283   5.485   4.758
 7985WAT      O24496   4.440   4.289   5.432
 7985WAT     H124497   4.459   4.354   5.506
 7985WAT     H224498   4.500   4.209   5.441
 7986WAT      O24499   5.174   4.944   5.357
 7986WAT     H124500   5.165   4.934   5.456
 7986WAT     H224501   5.270   4.937   5.331
 7987WAT      O24502   4.114   5.465   5.284
 7987WAT     H124503   4.023   5.506   5.282
 7987WAT     H224504   4.107   5.371   5.316
 7988WAT      O24505   5.398   4.607   4.978
 7988WAT     H124506   5.371   4.518   4.941
 7988WAT     H224507   5.399   4.675   4.905
 7989WAT      O24508   4.949   4.049   4.173
 7989WAT     H124509   5.014   3.975   4.162
 7989WAT     H224510   4.969   4.099   4.257
 7990WAT      O24511   4.318   4.469   4.376
 7990WAT     H124512   4.368   4.554   4.357
 7990WAT     H224513   4.230   4.471   4.328
 7991WAT      O24514   5.501   4.066   5.366
 7991WAT     H124515   5.484   4.097   5.272
 7991WAT     H224516   5.417   4.029   5.404
 7992WAT      O24517   5.454   4.658   5.241
 7992WAT     H124518   5.492   4.749   5.256
 7992WAT     H224519   5.446   4.641   5.142
 7993WAT      O24520   4.583   5.098   3.740
 7993WAT     H124521   4.537   5.113   3.828
 7993WAT     H224522   4.627   5.183   3.710
 7994WAT      O24523   4.385   5.514   4.677
 7994WAT     H124524   4.339   5.602   4.664
 7994WAT     H224525   4.484   5.526   4.670
 7995WAT      O24526   4.583   4.680   4.585
 7995WAT     H124527   4.637   4.611   4.633
 7995WAT     H224528   4.551   4.749   4.651
 7996WAT      O24529   4.807   4.708   3.811
 7996WAT     H124530   4.784   4.761   3.729
 7996WAT     H224531   4.888   4.652   3.792
 7997WAT      O24532   5.585   5.293   4.575
 7997WAT     H124533   5.514   5.281   4.505
 7997WAT     H224534   5.586   5.214   4.635
 7998WAT      O24535   3.945   5.038   5.568
 7998WAT     H124536   3.880   4.965   5.547
 7998WAT     H224537   3.949   5.052   5.666
 7999WAT      O24538   3.803   4.964   4.377
 7999WAT     H124539   3.802   4.917   4.465
 7999WAT     H224540   3.885   4.936   4.326
 8000WAT      O24541   4.396   5.115   5.348
 8000WAT     H124542   4.318   5.065   5.386
 8000WAT     H224543   4.393   5.210   5.379
 8001WAT      O24544   5.548   3.916   4.951
 8001WAT     H124545   5.544   3.826   4.995
 8001WAT     H224546   5.551   3.905   4.852
 8002WAT      O24547   4.152   4.148   4.244
 8002WAT     H124548   4.182   4.076   4.182
 8002WAT     H224549   4.113   4.108   4.327
 8003WAT      O24550   5.429   5.211   4.828
 8003WAT     H124551   5.336   5.186   4.801
 8003WAT     H224552   5.455   5.161   4.910
 8004WAT      O24553   4.041   4.271   5.004
 8004WAT     H124554   4.079   4.212   5.076
 8004WAT     H224555   4.081   4.245   4.916
 8005WAT      O24556   4.536   5.310   4.411
 8005WAT     H124557   4.568   5.320   4.317
 8005WAT     H224558   4.457   5.248   4.413
 8006WAT      O24559   5.148   3.938   4.836
 8006WAT     H124560   5.200   3.873   4.891
 8006WAT     H224561   5.099   4.001   4.897
 8007WAT      O24562   4.725   3.758   4.878
 8007WAT     H124563   4.662   3.686   4.847
 8007WAT     H224564   4.818   3.722   4.878
 8008WAT      O24565   4.494   5.054   4.025
 8008WAT     H124566   4.448   4.967   4.042
 8008WAT     H224567   4.585   5.051   4.066
 8009WAT      O24568   4.342   5.291   5.008
 8009WAT     H124569   4.337   5.373   5.065
 8009WAT     H224570   4.431   5.288   4.963
 8010WAT      O24571   5.076   3.776   3.892
 8010WAT     H124572   5.111   3.735   3.808
 8010WAT     H224573   4.986   3.738   3.912
 8011WAT      O24574   5.024   4.177   4.415
 8011WAT     H124575   4.965   4.257   4.419
 8011WAT     H224576   5.039   4.142   4.508
 8012WAT      O24577   5.317   3.945   4.606
 8012WAT     H124578   5.233   3.944   4.660
 8012WAT     H224579   5.319   4.028   4.550
 8013WAT      O24580   3.763   4.801   4.024
 8013WAT     H124581   3.862   4.790   4.015
 8013WAT     H224582   3.723   4.715   4.056
 8014WAT      O24583   4.599   5.370   4.061
 8014WAT     H124584   4.522   5.335   4.007
 8014WAT     H224585   4.567   5.441   4.123
 8015WAT      O24586   3.954   4.352   5.699
 8015WAT     H124587   3.861   4.350   5.736
 8015WAT     H224588   3.955   4.313   5.607
 8016WAT      O24589   3.949   3.999   6.582
 8016WAT     H124590   3.984   3.982   6.674
 8016WAT     H224591   3.861   3.954   6.570
 8017WAT      O24592   3.743   4.092   6.233
 8017WAT     H124593   3.661   4.135   6.272
 8017WAT     H224594   3.715   4.019   6.170
 8018WAT      O24595   4.293   4.999   6.751
 8018WAT     H124596   4.200   4.992   6.714
 8018WAT     H224597   4.304   5.088   6.795
 8019WAT      O24598   5.279   5.235   6.289
 8019WAT     H124599   5.222   5.219   6.370
 8019WAT     H224600   5.220   5.245   6.209
 8020WAT      O24601   4.859   4.427   6.303
 8020WAT     H124602   4.916   4.505   6.278
 8020WAT     H224603   4.799   4.453   6.379
 8021WAT      O24604   5.479   4.331   5.817
 8021WAT     H124605   5.467   4.318   5.718
 8021WAT     H224606   5.449   4.250   5.866
 8022WAT      O24607   4.492   4.868   6.609
 8022WAT     H124608   4.414   4.885   6.669
 8022WAT     H224609   4.526   4.955   6.573
 8023WAT      O24610   4.409   4.736   6.251
 8023WAT     H124611   4.478   4.720   6.321
 8023WAT     H224612   4.336   4.793   6.289
 8024WAT      O24613   4.059   5.159   6.647
 8024WAT     H124614   3.981   5.128   6.594
 8024WAT     H224615   4.117   5.217   6.590
 8025WAT      O24616   5.327   4.171   6.323
 8025WAT     H124617   5.253   4.217   6.273
 8025WAT     H224618   5.378   4.239   6.376
 8026WAT      O24619   3.955   5.437   6.069
 8026WAT     H124620   3.989   5.514   6.123
 8026WAT     H224621   3.999   5.437   5.979
 8027WAT      O24622   3.954   5.158   6.124
 8027WAT     H124623   3.928   5.254   6.124
 8027WAT     H224624   3.883   5.104   6.169
 8028WAT      O24625   3.964   4.815   6.472
 8028WAT     H124626   3.978   4.731   6.524
 8028WAT     H224627   3.909   4.879   6.527
 8029WAT      O24628   4.344   5.510   7.025
 8029WAT     H124629   4.252   5.493   7.060
 8029WAT     H224630   4.372   5.602   7.051
 8030WAT      O24631   4.330   4.688   5.709
 8030WAT     H124632   4.337   4.772   5.655
 8030WAT     H224633   4.376   4.701   5.797
 8031WAT      O24634   3.846   4.367   6.149
 8031WAT     H124635   3.801   4.279   6.166
 8031WAT     H224636   3.845   4.421   6.233
 8032WAT      O24637   5.566   5.491   5.945
 8032WAT     H124638   5.620   5.462   6.025
 8032WAT     H224639   5.596   5.581   5.916
 8033WAT      O24640   3.751   5.320   5.703
 8033WAT     H124641   3.732   5.224   5.724
 8033WAT     H224642   3.718   5.378   5.778
 8034WAT      O24643   5.413   4.646   6.198
 8034WAT     H124644   5.508   4.617   6.206
 8034WAT     H224645   5.405   4.711   6.123
 8035WAT      O24646   5.365   4.832   6.018
 8035WAT     H124647   5.451   4.834   5.966
 8035WAT     H224648   5.379   4.879   6.106
 8036WAT      O24649   4.337   5.089   6.312
 8036WAT     H124650   4.288   5.002   6.321
 8036WAT     H224651   4.314   5.132   6.225
 8037WAT      O24652   4.533   3.728   6.088
 8037WAT     H124653   4.573   3.819   6.079
 8037WAT     H224654   4.433   3.736   6.094
 8038WAT      O24655   3.921   4.700   6.850
 8038WAT     H124656   4.010   4.655   6.836
 8038WAT     H224657   3.848   4.635   6.831
 8039WAT      O24658   5.249   4.723   5.776
 8039WAT     H124659   5.186   4.647   5.789
 8039WAT     H224660   5.297   4.741   5.862
 8040WAT      O24661   5.190   5.141   6.539
 8040WAT     H124662   5.131   5.147   6.619
 8040WAT     H224663   5.175   5.053   6.493
 8041WAT      O24664   5.391   5.438   6.158
 8041WAT     H124665   5.350   5.415   6.070
 8041WAT     H224666   5.373   5.364   6.223
 8042WAT      O24667   4.322   4.453   5.856
 8042WAT     H124668   4.346   4.522   5.788
 8042WAT     H224669   4.244   4.486   5.910
 8043WAT      O24670   5.005   4.069   6.530
 8043WAT     H124671   4.919   4.019   6.517
 8043WAT     H224672   5.067   4.015   6.586
 8044WAT      O24673   5.300   5.386   5.893
 8044WAT     H124674   5.389   5.432   5.896
 8044WAT     H224675   5.279   5.362   5.798
 8045WAT      O24676   4.531   4.329   7.051
 8045WAT     H124677   4.484   4.326   7.140
 8045WAT     H224678   4.480   4.274   6.985
 8046WAT      O24679   4.715   4.134   6.828
 8046WAT     H124680   4.638   4.168   6.882
 8046WAT     H224681   4.681   4.083   6.749
 8047WAT      O24682   4.765   4.425   6.015
 8047WAT     H124683   4.791   4.421   6.111
 8047WAT     H224684   4.680   4.374   6.001
 8048WAT      O24685   3.800   4.535   6.375
 8048WAT     H124686   3.899   4.523   6.384
 8048WAT     H224687   3.776   4.630   6.396
 8049WAT      O24688   3.854   5.545   7.157
 8049WAT     H124689   3.844   5.530   7.256
 8049WAT     H224690   3.768   5.581   7.121
 8050WAT      O24691   4.589   4.072   5.781
 8050WAT     H124692   4.648   4.135   5.732
 8050WAT     H224693   4.608   3.978   5.752
 8051WAT      O24694   5.086   4.868   6.131
 8051WAT     H124695   5.169   4.839   6.083
 8051WAT     H224696   5.037   4.935   6.075
 8052WAT      O24697   4.274   3.920   6.471
 8052WAT     H124698   4.269   3.915   6.571
 8052WAT     H224699   4.276   4.016   6.442
 8053WAT      O24700   4.732   5.180   6.063
 8053WAT     H124701   4.686   5.252   6.011
 8053WAT     H224702   4.728   5.200   6.161
 8054WAT      O24703   4.075   5.525   6.439
 8054WAT     H124704   4.125   5.439   6.445
 8054WAT     H224705   4.140   5.602   6.436
 8055WAT      O24706   5.519   4.790   6.459
 8055WAT     H124707   5.457   4.775   6.383
 8055WAT     H224708   5.467   4.801   6.544
 8056WAT      O24709   4.045   4.667   5.828
 8056WAT     H124710   4.127   4.706   5.786
 8056WAT     H224711   4.018   4.585   5.779
 8057WAT      O24712   5.182   4.459   6.314
 8057WAT     H124713   5.177   4.394   6.389
 8057WAT     H224714   5.262   4.518   6.327
 8058WAT      O24715   4.835   5.500   5.823
 8058WAT     H124716   4.775   5.438   5.873
 8058WAT     H224717   4.866   5.456   5.738
 8059WAT      O24718   5.356   5.101   5.667
 8059WAT     H124719   5.324   5.195   5.657
 8059WAT     H224720   5.280   5.038   5.655
 8060WAT      O24721   4.188   5.467   5.909
 8060WAT     H124722   4.221   5.506   5.995
 8060WAT     H224723   4.264   5.460   5.844
 8061WAT      O24724   5.124   3.831   6.012
 8061WAT     H124725   5.100   3.794   5.922
 8061WAT     H224726   5.223   3.847   6.016
 8062WAT      O24727   3.973   5.509   6.827
 8062WAT     H124728   4.030   5.444   6.877
 8062WAT     H224729   3.957   5.476   6.734
 8063WAT      O24730   4.664   5.422   6.490
 8063WAT     H124731   4.744   5.365   6.511
 8063WAT     H224732   4.615   5.382   6.413
 8064WAT      O24733   4.106   4.424   6.066
 8064WAT     H124734   4.151   4.334   6.063
 8064WAT     H224735   4.012   4.413   6.099
 8065WAT      O24736   4.338   3.846   5.703
 8065WAT     H124737   4.436   3.824   5.710
 8065WAT     H224738   4.307   3.829   5.610
 8066WAT      O24739   4.612   5.238   6.781
 8066WAT     H124740   4.589   5.213   6.687
 8066WAT     H224741   4.673   5.169   6.820
 8067WAT      O24742   4.527   5.126   6.510
 8067WAT     H124743   4.617   5.140   6.468
 8067WAT     H224744   4.456   5.128   6.439
 8068WAT      O24745   4.646   4.227   6.485
 8068WAT     H124746   4.621   4.218   6.389
 8068WAT     H224747   4.694   4.145   6.516
 8069WAT      O24748   4.263   3.788   6.098
 8069WAT     H124749   4.182   3.789   6.156
 8069WAT     H224750   4.266   3.871   6.043
 8070WAT      O24751   5.158   4.912   5.627
 8070WAT     H124752   5.190   4.836   5.684
 8070WAT     H224753   5.066   4.939   5.657
 8071WAT      O24754   4.021   3.759   5.757
 8071WAT     H124755   4.070   3.843   5.736
 8071WAT     H224756   4.083   3.694   5.802
 8072WAT      O24757   4.659   3.960   6.066
 8072WAT     H124758   4.611   4.001   5.988
 8072WAT     H224759   4.758   3.958   6.047
 8073WAT      O24760   4.951   5.294   6.379
 8073WAT     H124761   4.972   5.368   6.314
 8073WAT     H224762   5.019   5.294   6.452
 8074WAT      O24763   4.183   4.876   6.327
 8074WAT     H124764   4.112   4.849   6.392
 8074WAT     H224765   4.157   4.848   6.234
 8075WAT      O24766   4.995   5.521   6.177
 8075WAT     H124767   5.039   5.585   6.113
 8075WAT     H224768   4.945   5.573   6.247
 8076WAT      O24769   4.756   4.273   5.602
 8076WAT     H124770   4.715   4.355   5.563
 8076WAT     H224771   4.820   4.299   5.675
 8077WAT      O24772   4.285   3.946   6.733
 8077WAT     H124773   4.323   3.862   6.770
 8077WAT     H224774   4.197   3.965   6.777
 8078WAT      O24775   4.590   4.178   6.228
 8078WAT     H124776   4.558   4.250   6.166
 8078WAT     H224777   4.614   4.097   6.175
 8079WAT      O24778   4.741   3.763   6.339
 8079WAT     H124779   4.669   3.768   6.270
 8079WAT     H224780   4.717   3.694   6.408
 8080WAT      O24781   5.153   4.897   6.453
 8080WAT     H124782   5.098   4.813   6.446
 8080WAT     H224783   5.179   4.926   6.361
 8081WAT      O24784   5.190   4.314   6.578
 8081WAT     H124785   5.160   4.219   6.585
 8081WAT     H224786   5.263   4.330   6.644
 8082WAT      O24787   5.581   4.557   5.963
 8082WAT     H124788   5.623   4.493   6.027
 8082WAT     H224789   5.543   4.506   5.885
 8083WAT      O24790   4.212   5.109   5.760
 8083WAT     H124791   4.125   5.094   5.807
 8083WAT     H224792   4.195   5.135   5.665
 8084WAT      O24793   5.388   5.004   6.243
 8084WAT     H124794   5.487   5.012   6.257
 8084WAT     H224795   5.343   5.088   6.274
 8085WAT      O24796   5.114   4.299   5.664
 8085WAT     H124797   5.060   4.278   5.745
 8085WAT     H224798   5.205   4.258   5.673
 8086WAT      O24799   4.251   3.980   5.914
 8086WAT     H124800   4.278   3.921   5.839
 8086WAT     H224801   4.251   4.075   5.883
 8087WAT      O24802   5.478   4.947   7.174
 8087WAT     H124803   5.569   4.908   7.161
 8087WAT     H224804   5.486   5.043   7.198
 8088WAT      O24805   4.835   4.919   6.686
 8088WAT     H124806   4.795   4.963   6.767
 8088WAT     H224807   4.794   4.956   6.603
 8089WAT      O24808   5.362   4.823   6.665
 8089WAT     H124809   5.367   4.904   6.724
 8089WAT     H224810   5.276   4.825   6.614
 8090WAT      O24811   4.429   4.774   5.954
 8090WAT     H124812   4.415   4.781   6.053
 8090WAT     H224813   4.513   4.723   5.936
 8091WAT      O24814   4.134   4.537   6.837
 8091WAT     H124815   4.220   4.549   6.887
 8091WAT     H224816   4.092   4.450   6.864
 8092WAT      O24817   4.998   4.110   6.848
 8092WAT     H124818   5.019   4.184   6.912
 8092WAT     H224819   4.909   4.127   6.805
 8093WAT      O24820   3.788   5.288   6.917
 8093WAT     H124821   3.742   5.370   6.883
 8093WAT     H224822   3.886   5.307   6.926
 8094WAT      O24823   4.091   4.824   6.087
 8094WAT     H124824   4.084   4.907   6.031
 8094WAT     H224825   4.095   4.744   6.027
 8095WAT      O24826   4.290   4.261   6.451
 8095WAT     H124827   4.302   4.327   6.377
 8095WAT     H224828   4.336   4.295   6.534
 8096WAT      O24829   4.976   5.072   5.974
 8096WAT     H124830   5.026   5.149   6.014
 8096WAT     H224831   4.881   5.074   6.006
 8097WAT      O24832   4.996   5.169   6.728
 8097WAT     H124833   5.043   5.182   6.815
 8097WAT     H224834   4.930   5.095   6.737
 8098WAT      O24835   5.306   4.363   6.058
 8098WAT     H124836   5.275   4.424   6.131
 8098WAT     H224837   5.356   4.415   5.989
 8099WAT      O24838   4.078   5.234   6.915
 8099WAT     H124839   4.057   5.190   6.828
 8099WAT     H224840   4.175   5.260   6.918
 8100WAT      O24841   4.297   4.594   6.615
 8100WAT     H124842   4.341   4.683   6.606
 8100WAT     H224843   4.234   4.594   6.692
 8101WAT      O24844   5.084   4.586   6.631
 8101WAT     H124845   5.009   4.586   6.565
 8101WAT     H224846   5.121   4.494   6.640
 8102WAT      O24847   4.933   4.249   5.861
 8102WAT     H124848   4.946   4.165   5.915
 8102WAT     H224849   4.904   4.323   5.921
 8103WAT      O24850   4.031   3.937   6.817
 8103WAT     H124851   4.008   3.974   6.907
 8103WAT     H224852   4.001   3.842   6.811
 8104WAT      O24853   3.761   5.034   6.868
 8104WAT     H124854   3.814   4.985   6.936
 8104WAT     H224855   3.783   5.132   6.873
 8105WAT      O24856   4.456   4.358   6.650
 8105WAT     H124857   4.515   4.332   6.574
 8105WAT     H224858   4.428   4.454   6.639
 8106WAT      O24859   4.031   3.787   6.204
 8106WAT     H124860   4.020   3.881   6.237
 8106WAT     H224861   4.026   3.724   6.281
 8107WAT      O24862   5.346   4.091   5.960
 8107WAT     H124863   5.348   4.015   6.024
 8107WAT     H224864   5.298   4.168   6.000
 8108WAT      O24865   4.747   4.490   6.552
 8108WAT     H124866   4.762   4.511   6.648
 8108WAT     H224867   4.717   4.395   6.543
 8109WAT      O24868   5.264   3.998   5.711
 8109WAT     H124869   5.203   3.923   5.734
 8109WAT     H224870   5.286   4.050   5.794
 8110WAT      O24871   5.027   4.562   5.628
 8110WAT     H124872   5.061   4.469   5.643
 8110WAT     H224873   5.045   4.589   5.533
 8111WAT      O24874   4.792   5.057   6.435
 8111WAT     H124875   4.799   4.973   6.380
 8111WAT     H224876   4.854   5.126   6.399
 8112WAT      O24877   4.043   4.534   6.535
 8112WAT     H124878   4.136   4.570   6.540
 8112WAT     H224879   4.037   4.449   6.587
 8113WAT      O24880   4.063   4.233   6.592
 8113WAT     H124881   4.011   4.150   6.575
 8113WAT     H224882   4.140   4.238   6.528
 8114WAT      O24883   4.884   3.931   7.063
 8114WAT     H124884   4.884   3.995   7.140
 8114WAT     H224885   4.912   3.979   6.980
 8115WAT      O24886   3.732   5.050   5.786
 8115WAT     H124887   3.639   5.071   5.755
 8115WAT     H224888   3.742   4.951   5.799
 8116WAT      O24889   3.812   5.525   6.513
 8116WAT     H124890   3.770   5.439   6.486
 8116WAT     H224891   3.906   5.528   6.479
 8117WAT      O24892   4.228   5.292   6.496
 8117WAT     H124893   4.294   5.366   6.505
 8117WAT     H224894   4.272   5.213   6.454
 8118WAT      O24895   4.726   4.520   6.824
 8118WAT     H124896   4.767   4.488   6.910
 8118WAT     H224897   4.630   4.493   6.821
 8119WAT      O24898   3.764   4.268   6.700
 8119WAT     H124899   3.849   4.235   6.659
 8119WAT     H224900   3.777   4.283   6.798
 8120WAT      O24901   4.539   4.296   5.911
 8120WAT     H124902   4.546   4.207   5.865
 8120WAT     H224903   4.445   4.330   5.903
 8121WAT      O24904   5.381   4.328   6.792
 8121WAT     H124905   5.343   4.259   6.854
 8121WAT     H224906   5.463   4.292   6.748
 8122WAT      O24907   4.395   4.188   6.855
 8122WAT     H124908   4.361   4.099   6.825
 8122WAT     H224909   4.421   4.242   6.775
 8123WAT      O24910   4.654   5.402   7.051
 8123WAT     H124911   4.630   5.384   6.956
 8123WAT     H224912   4.684   5.496   7.061
 8124WAT      O24913   4.197   4.224   5.777
 8124WAT     H124914   4.258   4.304   5.781
 8124WAT     H224915   4.102   4.255   5.784
 8125WAT      O24916   3.883   4.861   7.052
 8125WAT     H124917   3.905   4.800   7.128
 8125WAT     H224918   3.893   4.812   6.966
 8126WAT      O24919   5.071   4.783   6.820
 8126WAT     H124920   5.095   4.720   6.746
 8126WAT     H224921   4.981   4.823   6.802
 8127WAT      O24922   5.026   4.579   5.895
 8127WAT     H124923   4.940   4.548   5.937
 8127WAT     H224924   5.022   4.565   5.796
 8128WAT      O24925   5.483   5.471   6.740
 8128WAT     H124926   5.544   5.501   6.667
 8128WAT     H224927   5.445   5.382   6.718
 8129WAT      O24928   4.976   5.455   6.714
 8129WAT     H124929   5.060   5.460   6.660
 8129WAT     H224930   4.953   5.359   6.732
 8130WAT      O24931   3.807   4.982   6.608
 8130WAT     H124932   3.802   4.981   6.708
 8130WAT     H224933   3.724   4.941   6.570
 8131WAT      O24934   5.450   3.859   6.109
 8131WAT     H124935   5.523   3.842   6.042
 8131WAT     H224936   5.419   3.772   6.147
 8132WAT      O24937   5.112   5.297   6.063
 8132WAT     H124938   5.179   5.309   5.989
 8132WAT     H224939   5.072   5.386   6.086
 8133WAT      O24940   5.004   4.651   6.258
 8133WAT     H124941   5.064   4.570   6.260
 8133WAT     H224942   5.044   4.720   6.198
 8134WAT      O24943   4.396   5.340   5.740
 8134WAT     H124944   4.405   5.350   5.641
 8134WAT     H224945   4.356   5.251   5.761
 8135WAT      O24946   5.565   3.899   6.549
 8135WAT     H124947   5.604   3.814   6.513
 8135WAT     H224948   5.467   3.901   6.530
 8136WAT      O24949   3.987   4.050   6.306
 8136WAT     H124950   3.908   4.101   6.272
 8136WAT     H224951   3.978   4.035   6.404
 8137WAT      O24952   4.918   5.336   5.617
 8137WAT     H124953   4.924   5.243   5.654
 8137WAT     H224954   4.859   5.336   5.537
 8138WAT      O24955   4.546   4.726   6.958
 8138WAT     H124956   4.586   4.725   6.866
 8138WAT     H224957   4.556   4.818   6.998
 8139WAT      O24958   4.640   4.634   5.877
 8139WAT     H124959   4.703   4.672   5.809
 8139WAT     H224960   4.680   4.551   5.916
 8140WAT      O24961   5.228   5.331   5.630
 8140WAT     H124962   5.136   5.368   5.637
 8140WAT     H224963   5.266   5.351   5.540
 8141WAT      O24964   5.338   5.016   6.875
 8141WAT     H124965   5.398   5.019   6.955
 8141WAT     H224966   5.263   5.080   6.888
 8142WAT      O24967   4.763   4.822   6.282
 8142WAT     H124968   4.693   4.775   6.336
 8142WAT     H224969   4.822   4.754   6.239
 8143WAT      O24970   4.738   3.960   6.557
 8143WAT     H124971   4.730   3.924   6.464
 8143WAT     H224972   4.736   3.884   6.622
 8144WAT      O24973   4.314   5.211   6.077
 8144WAT     H124974   4.356   5.153   6.007
 8144WAT     H224975   4.270   5.290   6.033
 8145WAT      O24976   5.433   4.109   6.967
 8145WAT     H124977   5.506   4.178   6.971
 8145WAT     H224978   5.461   4.034   6.908
 8146WAT      O24979   3.979   5.072   5.876
 8146WAT     H124980   3.883   5.073   5.849
 8146WAT     H224981   3.991   5.125   5.960
 8147WAT      O24982   4.396   3.927   7.075
 8147WAT     H124983   4.486   3.911   7.035
 8147WAT     H224984   4.404   3.932   7.174
 8148WAT      O24985   3.799   4.069   5.619
 8148WAT     H124986   3.707   4.041   5.590
 8148WAT     H224987   3.830   4.146   5.563
 8149WAT      O24988   3.796   3.890   5.904
 8149WAT     H124989   3.779   3.973   5.850
 8149WAT     H224990   3.886   3.853   5.882
 8150WAT      O24991   4.907   5.059   5.705
 8150WAT     H124992   4.808   5.048   5.707
 8150WAT     H224993   4.941   5.074   5.798
 8151WAT      O24994   5.217   5.491   6.545
 8151WAT     H124995   5.250   5.555   6.476
 8151WAT     H224996   5.283   5.485   6.620
 8152WAT      O24997   5.174   4.944   7.219
 8152WAT     H124998   5.165   4.934   7.318
 8152WAT     H224999   5.270   4.937   7.193
 8153WAT      O25000   4.114   5.465   7.146
 8153WAT     H125001   4.023   5.506   7.144
 8153WAT     H225002   4.107   5.371   7.178
 8154WAT      O25003   5.398   4.607   6.840
 8154WAT     H125004   5.371   4.518   6.803
 8154WAT     H225005   5.399   4.675   6.767
 8155WAT      O25006   4.949   4.049   6.035
 8155WAT     H125007   5.014   3.975   6.024
 8155WAT     H225008   4.969   4.099   6.119
 8156WAT      O25009   4.318   4.469   6.238
 8156WAT     H125010   4.368   4.554   6.219
 8156WAT     H225011   4.230   4.471   6.190
 8157WAT      O25012   5.454   4.658   7.103
 8157WAT     H125013   5.492   4.749   7.118
 8157WAT     H225014   5.446   4.641   7.004
 8158WAT      O25015   4.583   5.098   5.602
 8158WAT     H125016   4.537   5.113   5.690
 8158WAT     H225017   4.627   5.183   5.572
 8159WAT      O25018   4.385   5.514   6.539
 8159WAT     H125019   4.339   5.602   6.526
 8159WAT     H225020   4.484   5.526   6.532
 8160WAT      O25021   4.583   4.680   6.447
 8160WAT     H125022   4.637   4.611   6.495
 8160WAT     H225023   4.551   4.749   6.513
 8161WAT      O25024   4.807   4.708   5.673
 8161WAT     H125025   4.784   4.761   5.591
 8161WAT     H225026   4.888   4.652   5.654
 8162WAT      O25027   5.585   5.293   6.437
 8162WAT     H125028   5.514   5.281   6.367
 8162WAT     H225029   5.586   5.214   6.497
 8163WAT      O25030   3.803   4.964   6.239
 8163WAT     H125031   3.802   4.917   6.327
 8163WAT     H225032   3.885   4.936   6.188
 8164WAT      O25033   5.548   3.916   6.813
 8164WAT     H125034   5.544   3.826   6.857
 8164WAT     H225035   5.551   3.905   6.714
 8165WAT      O25036   4.152   4.148   6.106
 8165WAT     H125037   4.182   4.076   6.044
 8165WAT     H225038   4.113   4.108   6.189
 8166WAT      O25039   5.429   5.211   6.690
 8166WAT     H125040   5.336   5.186   6.663
 8166WAT     H225041   5.455   5.161   6.772
 8167WAT      O25042   4.041   4.271   6.866
 8167WAT     H125043   4.079   4.212   6.938
 8167WAT     H225044   4.081   4.245   6.778
 8168WAT      O25045   4.536   5.310   6.273
 8168WAT     H125046   4.568   5.320   6.179
 8168WAT     H225047   4.457   5.248   6.275
 8169WAT      O25048   5.148   3.938   6.698
 8169WAT     H125049   5.200   3.873   6.753
 8169WAT     H225050   5.099   4.001   6.759
 8170WAT      O25051   4.725   3.758   6.740
 8170WAT     H125052   4.662   3.686   6.709
 8170WAT     H225053   4.818   3.722   6.740
 8171WAT      O25054   4.494   5.054   5.887
 8171WAT     H125055   4.448   4.967   5.904
 8171WAT     H225056   4.585   5.051   5.928
 8172WAT      O25057   4.342   5.291   6.870
 8172WAT     H125058   4.337   5.373   6.927
 8172WAT     H225059   4.431   5.288   6.825
 8173WAT      O25060   5.076   3.776   5.754
 8173WAT     H125061   5.111   3.735   5.670
 8173WAT     H225062   4.986   3.738   5.774
 8174WAT      O25063   5.024   4.177   6.277
 8174WAT     H125064   4.965   4.257   6.281
 8174WAT     H225065   5.039   4.142   6.370
 8175WAT      O25066   5.317   3.945   6.468
 8175WAT     H125067   5.233   3.944   6.522
 8175WAT     H225068   5.319   4.028   6.412
 8176WAT      O25069   3.763   4.801   5.886
 8176WAT     H125070   3.862   4.790   5.877
 8176WAT     H225071   3.723   4.715   5.918
 8177WAT      O25072   4.599   5.370   5.923
 8177WAT     H125073   4.522   5.335   5.869
 8177WAT     H225074   4.567   5.441   5.985
 8178WAT      O25075   3.954   6.214   0.113
 8178WAT     H125076   3.861   6.212   0.150
 8178WAT     H225077   3.955   6.175   0.021
 8179WAT      O25078   3.949   5.861   0.996
 8179WAT     H125079   3.984   5.844   1.088
 8179WAT     H225080   3.861   5.816   0.984
 8180WAT      O25081   3.743   5.954   0.647
 8180WAT     H125082   3.661   5.997   0.686
 8180WAT     H225083   3.715   5.881   0.584
 8181WAT      O25084   4.293   6.861   1.165
 8181WAT     H125085   4.200   6.854   1.128
 8181WAT     H225086   4.304   6.950   1.209
 8182WAT      O25087   5.279   7.097   0.703
 8182WAT     H125088   5.222   7.081   0.784
 8182WAT     H225089   5.220   7.107   0.623
 8183WAT      O25090   4.859   6.289   0.717
 8183WAT     H125091   4.916   6.367   0.692
 8183WAT     H225092   4.799   6.315   0.793
 8184WAT      O25093   5.479   6.193   0.231
 8184WAT     H125094   5.467   6.180   0.132
 8184WAT     H225095   5.449   6.112   0.280
 8185WAT      O25096   4.492   6.730   1.023
 8185WAT     H125097   4.414   6.747   1.083
 8185WAT     H225098   4.526   6.817   0.987
 8186WAT      O25099   4.574   6.384   1.823
 8186WAT     H125100   4.570   6.460   1.888
 8186WAT     H225101   4.596   6.420   1.732
 8187WAT      O25102   4.409   6.598   0.665
 8187WAT     H125103   4.478   6.582   0.735
 8187WAT     H225104   4.336   6.655   0.703
 8188WAT      O25105   4.410   6.747   1.803
 8188WAT     H125106   4.470   6.826   1.817
 8188WAT     H225107   4.324   6.778   1.762
 8189WAT      O25108   4.059   7.021   1.061
 8189WAT     H125109   3.981   6.990   1.008
 8189WAT     H225110   4.117   7.079   1.004
 8190WAT      O25111   4.162   5.978   1.499
 8190WAT     H125112   4.244   5.922   1.508
 8190WAT     H225113   4.081   5.920   1.503
 8191WAT      O25114   5.327   6.033   0.737
 8191WAT     H125115   5.253   6.079   0.687
 8191WAT     H225116   5.378   6.101   0.790
 8192WAT      O25117   3.964   6.677   0.886
 8192WAT     H125118   3.978   6.593   0.938
 8192WAT     H225119   3.909   6.741   0.941
 8193WAT      O25120   4.330   6.550   0.123
 8193WAT     H125121   4.337   6.634   0.069
 8193WAT     H225122   4.376   6.563   0.211
 8194WAT      O25123   5.318   5.700   1.480
 8194WAT     H125124   5.300   5.767   1.408
 8194WAT     H225125   5.315   5.746   1.569
 8195WAT      O25126   3.846   6.229   0.563
 8195WAT     H125127   3.801   6.141   0.580
 8195WAT     H225128   3.845   6.283   0.647
 8196WAT      O25129   5.413   6.508   0.612
 8196WAT     H125130   5.508   6.479   0.620
 8196WAT     H225131   5.405   6.573   0.537
 8197WAT      O25132   5.365   6.694   0.432
 8197WAT     H125133   5.451   6.696   0.380
 8197WAT     H225134   5.379   6.741   0.520
 8198WAT      O25135   3.837   6.323   1.597
 8198WAT     H125136   3.925   6.310   1.642
 8198WAT     H225137   3.824   6.420   1.575
 8199WAT      O25138   5.017   6.814   1.423
 8199WAT     H125139   5.054   6.741   1.365
 8199WAT     H225140   5.069   6.819   1.508
 8200WAT      O25141   4.533   5.590   0.502
 8200WAT     H125142   4.573   5.681   0.493
 8200WAT     H225143   4.433   5.598   0.508
 8201WAT      O25144   3.921   6.562   1.264
 8201WAT     H125145   4.010   6.517   1.250
 8201WAT     H225146   3.848   6.497   1.245
 8202WAT      O25147   5.249   6.585   0.190
 8202WAT     H125148   5.186   6.509   0.203
 8202WAT     H225149   5.297   6.603   0.276
 8203WAT      O25150   4.041   5.837   1.801
 8203WAT     H125151   4.112   5.908   1.807
 8203WAT     H225152   3.953   5.876   1.829
 8204WAT      O25153   5.190   7.003   0.953
 8204WAT     H125154   5.131   7.009   1.033
 8204WAT     H225155   5.175   6.915   0.907
 8205WAT      O25156   4.322   6.315   0.270
 8205WAT     H125157   4.346   6.384   0.202
 8205WAT     H225158   4.244   6.348   0.324
 8206WAT      O25159   5.005   5.931   0.944
 8206WAT     H125160   4.919   5.881   0.931
 8206WAT     H225161   5.067   5.877   1.000
 8207WAT      O25162   4.531   6.191   1.465
 8207WAT     H125163   4.484   6.188   1.554
 8207WAT     H225164   4.480   6.136   1.399
 8208WAT      O25165   5.118   6.055   1.674
 8208WAT     H125166   5.098   6.098   1.762
 8208WAT     H225167   5.196   5.993   1.683
 8209WAT      O25168   4.697   6.476   1.572
 8209WAT     H125169   4.743   6.392   1.543
 8209WAT     H225170   4.641   6.510   1.497
 8210WAT      O25171   4.715   5.996   1.242
 8210WAT     H125172   4.638   6.030   1.296
 8210WAT     H225173   4.681   5.945   1.163
 8211WAT      O25174   4.765   6.287   0.429
 8211WAT     H125175   4.791   6.283   0.525
 8211WAT     H225176   4.680   6.236   0.415
 8212WAT      O25177   3.800   6.397   0.789
 8212WAT     H125178   3.899   6.385   0.798
 8212WAT     H225179   3.776   6.492   0.810
 8213WAT      O25180   4.589   5.934   0.195
 8213WAT     H125181   4.648   5.997   0.146
 8213WAT     H225182   4.608   5.840   0.166
 8214WAT      O25183   5.443   6.171   1.831
 8214WAT     H125184   5.417   6.260   1.795
 8214WAT     H225185   5.441   6.103   1.758
 8215WAT      O25186   5.086   6.730   0.545
 8215WAT     H125187   5.169   6.701   0.497
 8215WAT     H225188   5.037   6.797   0.489
 8216WAT      O25189   4.274   5.782   0.885
 8216WAT     H125190   4.269   5.777   0.985
 8216WAT     H225191   4.276   5.878   0.856
 8217WAT      O25192   5.519   6.652   0.873
 8217WAT     H125193   5.457   6.637   0.797
 8217WAT     H225194   5.467   6.663   0.958
 8218WAT      O25195   4.045   6.529   0.242
 8218WAT     H125196   4.127   6.568   0.200
 8218WAT     H225197   4.018   6.447   0.193
 8219WAT      O25198   5.182   6.321   0.728
 8219WAT     H125199   5.177   6.256   0.803
 8219WAT     H225200   5.262   6.380   0.741
 8220WAT      O25201   3.926   5.871   1.498
 8220WAT     H125202   3.846   5.931   1.485
 8220WAT     H225203   3.916   5.822   1.584
 8221WAT      O25204   5.356   6.963   0.081
 8221WAT     H125205   5.324   7.057   0.071
 8221WAT     H225206   5.280   6.900   0.069
 8222WAT      O25207   4.106   6.286   0.480
 8222WAT     H125208   4.151   6.196   0.477
 8222WAT     H225209   4.012   6.275   0.513
 8223WAT      O25210   5.271   5.808   1.729
 8223WAT     H125211   5.266   5.845   1.821
 8223WAT     H225212   5.199   5.739   1.717
 8224WAT      O25213   4.505   5.850   1.749
 8224WAT     H125214   4.572   5.789   1.792
 8224WAT     H225215   4.432   5.869   1.814
 8225WAT      O25216   5.075   6.176   1.433
 8225WAT     H125217   5.103   6.133   1.518
 8225WAT     H225218   5.100   6.272   1.434
 8226WAT      O25219   4.646   6.089   0.899
 8226WAT     H125220   4.621   6.080   0.803
 8226WAT     H225221   4.694   6.007   0.930
 8227WAT      O25222   4.263   5.650   0.512
 8227WAT     H125223   4.182   5.651   0.570
 8227WAT     H225224   4.266   5.733   0.457
 8228WAT      O25225   5.158   6.774   0.041
 8228WAT     H125226   5.190   6.698   0.098
 8228WAT     H225227   5.066   6.801   0.071
 8229WAT      O25228   4.659   5.822   0.480
 8229WAT     H125229   4.611   5.863   0.402
 8229WAT     H225230   4.758   5.820   0.461
 8230WAT      O25231   4.800   6.269   1.464
 8230WAT     H125232   4.720   6.208   1.467
 8230WAT     H225233   4.881   6.216   1.440
 8231WAT      O25234   4.951   7.156   0.793
 8231WAT     H125235   4.972   7.230   0.728
 8231WAT     H225236   5.019   7.156   0.866
 8232WAT      O25237   4.183   6.738   0.741
 8232WAT     H125238   4.112   6.711   0.806
 8232WAT     H225239   4.157   6.710   0.648
 8233WAT      O25240   4.756   6.135   0.016
 8233WAT     H125241   4.715   6.217  -0.023
 8233WAT     H225242   4.820   6.161   0.089
 8234WAT      O25243   3.802   6.142   1.386
 8234WAT     H125244   3.894   6.141   1.345
 8234WAT     H225245   3.796   6.216   1.453
 8235WAT      O25246   4.285   5.808   1.147
 8235WAT     H125247   4.323   5.724   1.184
 8235WAT     H225248   4.197   5.827   1.191
 8236WAT      O25249   4.590   6.040   0.642
 8236WAT     H125250   4.558   6.112   0.580
 8236WAT     H225251   4.614   5.959   0.589
 8237WAT      O25252   4.741   5.625   0.753
 8237WAT     H125253   4.669   5.630   0.684
 8237WAT     H225254   4.717   5.556   0.822
 8238WAT      O25255   5.153   6.759   0.867
 8238WAT     H125256   5.098   6.675   0.860
 8238WAT     H225257   5.179   6.788   0.775
 8239WAT      O25258   5.190   6.176   0.992
 8239WAT     H125259   5.160   6.081   0.999
 8239WAT     H225260   5.263   6.192   1.058
 8240WAT      O25261   5.581   6.419   0.377
 8240WAT     H125262   5.623   6.355   0.441
 8240WAT     H225263   5.543   6.368   0.299
 8241WAT      O25264   5.388   6.866   0.657
 8241WAT     H125265   5.487   6.874   0.671
 8241WAT     H225266   5.343   6.950   0.688
 8242WAT      O25267   5.114   6.161   0.078
 8242WAT     H125268   5.060   6.140   0.159
 8242WAT     H225269   5.205   6.120   0.087
 8243WAT      O25270   4.251   5.842   0.328
 8243WAT     H125271   4.278   5.783   0.253
 8243WAT     H225272   4.251   5.937   0.297
 8244WAT      O25273   5.478   6.809   1.588
 8244WAT     H125274   5.569   6.770   1.575
 8244WAT     H225275   5.486   6.905   1.612
 8245WAT      O25276   4.788   6.933   1.340
 8245WAT     H125277   4.708   6.910   1.395
 8245WAT     H225278   4.871   6.907   1.389
 8246WAT      O25279   4.835   6.781   1.100
 8246WAT     H125280   4.795   6.825   1.181
 8246WAT     H225281   4.794   6.818   1.017
 8247WAT      O25282   5.362   6.685   1.079
 8247WAT     H125283   5.367   6.766   1.138
 8247WAT     H225284   5.276   6.687   1.028
 8248WAT      O25285   4.639   5.675   1.402
 8248WAT     H125286   4.664   5.655   1.307
 8248WAT     H225287   4.711   5.731   1.444
 8249WAT      O25288   4.704   6.702   1.719
 8249WAT     H125289   4.605   6.708   1.729
 8249WAT     H225290   4.727   6.622   1.663
 8250WAT      O25291   4.429   6.636   0.368
 8250WAT     H125292   4.415   6.643   0.467
 8250WAT     H225293   4.513   6.585   0.350
 8251WAT      O25294   4.134   6.399   1.251
 8251WAT     H125295   4.220   6.411   1.301
 8251WAT     H225296   4.092   6.312   1.278
 8252WAT      O25297   4.998   5.972   1.262
 8252WAT     H125298   5.019   6.046   1.326
 8252WAT     H225299   4.909   5.989   1.219
 8253WAT      O25300   4.091   6.686   0.501
 8253WAT     H125301   4.084   6.769   0.445
 8253WAT     H225302   4.095   6.606   0.441
 8254WAT      O25303   4.290   6.123   0.865
 8254WAT     H125304   4.302   6.189   0.791
 8254WAT     H225305   4.336   6.157   0.948
 8255WAT      O25306   5.306   6.225   0.472
 8255WAT     H125307   5.275   6.286   0.545
 8255WAT     H225308   5.356   6.277   0.403
 8256WAT      O25309   4.126   6.337   1.598
 8256WAT     H125310   4.194   6.392   1.551
 8256WAT     H225311   4.166   6.249   1.625
 8257WAT      O25312   5.311   6.365   1.670
 8257WAT     H125313   5.219   6.403   1.665
 8257WAT     H225314   5.371   6.412   1.605
 8258WAT      O25315   4.737   5.691   1.770
 8258WAT     H125316   4.743   5.776   1.718
 8258WAT     H225317   4.769   5.615   1.713
 8259WAT      O25318   4.228   5.636   1.740
 8259WAT     H125319   4.186   5.579   1.670
 8259WAT     H225320   4.162   5.705   1.772
 8260WAT      O25321   4.297   6.456   1.029
 8260WAT     H125322   4.341   6.545   1.020
 8260WAT     H225323   4.234   6.456   1.106
 8261WAT      O25324   5.084   6.448   1.045
 8261WAT     H125325   5.009   6.448   0.979
 8261WAT     H225326   5.121   6.356   1.054
 8262WAT      O25327   4.933   6.111   0.275
 8262WAT     H125328   4.946   6.027   0.329
 8262WAT     H225329   4.904   6.185   0.335
 8263WAT      O25330   4.031   5.799   1.231
 8263WAT     H125331   4.008   5.836   1.321
 8263WAT     H225332   4.001   5.704   1.225
 8264WAT      O25333   3.761   6.896   1.282
 8264WAT     H125334   3.814   6.847   1.350
 8264WAT     H225335   3.783   6.994   1.287
 8265WAT      O25336   4.456   6.220   1.064
 8265WAT     H125337   4.515   6.194   0.988
 8265WAT     H225338   4.428   6.316   1.053
 8266WAT      O25339   5.452   6.521   1.854
 8266WAT     H125340   5.406   6.514   1.765
 8266WAT     H225341   5.390   6.565   1.920
 8267WAT      O25342   4.031   5.649   0.618
 8267WAT     H125343   4.020   5.743   0.651
 8267WAT     H225344   4.026   5.586   0.695
 8268WAT      O25345   5.346   5.953   0.374
 8268WAT     H125346   5.348   5.877   0.438
 8268WAT     H225347   5.298   6.030   0.414
 8269WAT      O25348   4.747   6.352   0.966
 8269WAT     H125349   4.762   6.373   1.062
 8269WAT     H225350   4.717   6.257   0.957
 8270WAT      O25351   5.583   7.104   1.605
 8270WAT     H125352   5.597   7.131   1.510
 8270WAT     H225353   5.666   7.126   1.658
 8271WAT      O25354   4.074   6.484   1.804
 8271WAT     H125355   4.150   6.528   1.852
 8271WAT     H225356   4.109   6.437   1.722
 8272WAT      O25357   5.264   5.860   0.125
 8272WAT     H125358   5.203   5.785   0.148
 8272WAT     H225359   5.286   5.912   0.208
 8273WAT      O25360   5.027   6.424   0.042
 8273WAT     H125361   5.061   6.331   0.057
 8273WAT     H225362   5.045   6.451  -0.053
 8274WAT      O25363   4.043   6.396   0.949
 8274WAT     H125364   4.136   6.432   0.954
 8274WAT     H225365   4.037   6.311   1.001
 8275WAT      O25366   4.063   6.095   1.006
 8275WAT     H125367   4.011   6.012   0.989
 8275WAT     H225368   4.140   6.100   0.942
 8276WAT      O25369   4.862   5.966   1.678
 8276WAT     H125370   4.817   6.029   1.742
 8276WAT     H225371   4.955   5.997   1.661
 8277WAT      O25372   4.884   5.793   1.477
 8277WAT     H125373   4.884   5.857   1.554
 8277WAT     H225374   4.912   5.841   1.394
 8278WAT      O25375   4.726   6.382   1.238
 8278WAT     H125376   4.767   6.350   1.324
 8278WAT     H225377   4.630   6.355   1.235
 8279WAT      O25378   3.764   6.130   1.114
 8279WAT     H125379   3.849   6.097   1.073
 8279WAT     H225380   3.777   6.145   1.212
 8280WAT      O25381   3.913   6.106   1.722
 8280WAT     H125382   3.972   6.066   1.652
 8280WAT     H225383   3.855   6.177   1.681
 8281WAT      O25384   5.093   6.536   1.660
 8281WAT     H125385   5.132   6.625   1.680
 8281WAT     H225386   5.103   6.516   1.563
 8282WAT      O25387   4.539   6.158   0.325
 8282WAT     H125388   4.546   6.069   0.279
 8282WAT     H225389   4.445   6.192   0.317
 8283WAT      O25390   5.381   6.190   1.206
 8283WAT     H125391   5.343   6.121   1.268
 8283WAT     H225392   5.463   6.154   1.162
 8284WAT      O25393   4.395   6.050   1.269
 8284WAT     H125394   4.361   5.961   1.239
 8284WAT     H225395   4.421   6.104   1.189
 8285WAT      O25396   4.197   6.086   0.191
 8285WAT     H125397   4.258   6.166   0.195
 8285WAT     H225398   4.102   6.117   0.198
 8286WAT      O25399   3.883   6.723   1.466
 8286WAT     H125400   3.905   6.662   1.542
 8286WAT     H225401   3.893   6.674   1.380
 8287WAT      O25402   5.071   6.645   1.234
 8287WAT     H125403   5.095   6.582   1.160
 8287WAT     H225404   4.981   6.685   1.216
 8288WAT      O25405   5.026   6.441   0.309
 8288WAT     H125406   4.940   6.410   0.351
 8288WAT     H225407   5.022   6.427   0.210
 8289WAT      O25408   3.807   6.844   1.022
 8289WAT     H125409   3.802   6.843   1.122
 8289WAT     H225410   3.724   6.803   0.984
 8290WAT      O25411   4.627   5.672   0.133
 8290WAT     H125412   4.678   5.673   0.047
 8290WAT     H225413   4.683   5.630   0.204
 8291WAT      O25414   5.450   5.721   0.523
 8291WAT     H125415   5.523   5.704   0.456
 8291WAT     H225416   5.419   5.634   0.561
 8292WAT      O25417   5.004   6.513   0.672
 8292WAT     H125418   5.064   6.432   0.674
 8292WAT     H225419   5.044   6.582   0.612
 8293WAT      O25420   4.554   6.859   1.422
 8293WAT     H125421   4.549   6.892   1.517
 8293WAT     H225422   4.468   6.878   1.376
 8294WAT      O25423   5.565   5.761   0.963
 8294WAT     H125424   5.604   5.676   0.927
 8294WAT     H225425   5.467   5.763   0.944
 8295WAT      O25426   3.987   5.912   0.720
 8295WAT     H125427   3.908   5.963   0.686
 8295WAT     H225428   3.978   5.897   0.818
 8296WAT      O25429   4.546   6.588   1.372
 8296WAT     H125430   4.586   6.587   1.280
 8296WAT     H225431   4.556   6.680   1.412
 8297WAT      O25432   4.640   6.496   0.291
 8297WAT     H125433   4.703   6.534   0.223
 8297WAT     H225434   4.680   6.413   0.330
 8298WAT      O25435   4.096   6.874   1.490
 8298WAT     H125436   4.083   6.967   1.456
 8298WAT     H225437   4.012   6.822   1.477
 8299WAT      O25438   5.338   6.878   1.289
 8299WAT     H125439   5.398   6.881   1.369
 8299WAT     H225440   5.263   6.942   1.302
 8300WAT      O25441   4.763   6.684   0.696
 8300WAT     H125442   4.693   6.637   0.750
 8300WAT     H225443   4.822   6.616   0.653
 8301WAT      O25444   4.738   5.822   0.971
 8301WAT     H125445   4.730   5.786   0.878
 8301WAT     H225446   4.736   5.746   1.036
 8302WAT      O25447   5.433   5.971   1.381
 8302WAT     H125448   5.506   6.040   1.385
 8302WAT     H225449   5.461   5.896   1.322
 8303WAT      O25450   3.829   6.599   1.726
 8303WAT     H125451   3.752   6.566   1.780
 8303WAT     H225452   3.914   6.569   1.768
 8304WAT      O25453   4.396   5.789   1.489
 8304WAT     H125454   4.486   5.773   1.449
 8304WAT     H225455   4.404   5.794   1.588
 8305WAT      O25456   3.799   5.931   0.033
 8305WAT     H125457   3.707   5.903   0.004
 8305WAT     H225458   3.830   6.008  -0.023
 8306WAT      O25459   5.164   6.442   1.398
 8306WAT     H125460   5.107   6.494   1.335
 8306WAT     H225461   5.260   6.454   1.374
 8307WAT      O25462   3.796   5.752   0.318
 8307WAT     H125463   3.779   5.835   0.264
 8307WAT     H225464   3.886   5.715   0.296
 8308WAT      O25465   4.337   6.428   1.431
 8308WAT     H125466   4.393   6.509   1.414
 8308WAT     H225467   4.396   6.348   1.434
 8309WAT      O25468   4.440   6.151   1.708
 8309WAT     H125469   4.459   6.216   1.782
 8309WAT     H225470   4.500   6.071   1.717
 8310WAT      O25471   5.174   6.806   1.633
 8310WAT     H125472   5.165   6.796   1.732
 8310WAT     H225473   5.270   6.799   1.607
 8311WAT      O25474   5.398   6.469   1.254
 8311WAT     H125475   5.371   6.380   1.217
 8311WAT     H225476   5.399   6.537   1.181
 8312WAT      O25477   4.949   5.911   0.449
 8312WAT     H125478   5.014   5.837   0.438
 8312WAT     H225479   4.969   5.961   0.533
 8313WAT      O25480   4.318   6.331   0.652
 8313WAT     H125481   4.368   6.416   0.633
 8313WAT     H225482   4.230   6.333   0.604
 8314WAT      O25483   5.501   5.928   1.642
 8314WAT     H125484   5.484   5.959   1.548
 8314WAT     H225485   5.417   5.891   1.680
 8315WAT      O25486   5.454   6.520   1.517
 8315WAT     H125487   5.492   6.611   1.532
 8315WAT     H225488   5.446   6.503   1.418
 8316WAT      O25489   4.583   6.542   0.861
 8316WAT     H125490   4.637   6.473   0.909
 8316WAT     H225491   4.551   6.611   0.927
 8317WAT      O25492   4.807   6.570   0.087
 8317WAT     H125493   4.784   6.623   0.005
 8317WAT     H225494   4.888   6.514   0.068
 8318WAT      O25495   3.945   6.900   1.844
 8318WAT     H125496   3.880   6.827   1.823
 8318WAT     H225497   3.949   6.914   1.942
 8319WAT      O25498   3.803   6.826   0.653
 8319WAT     H125499   3.802   6.779   0.741
 8319WAT     H225500   3.885   6.798   0.602
 8320WAT      O25501   4.396   6.977   1.624
 8320WAT     H125502   4.318   6.927   1.662
 8320WAT     H225503   4.393   7.072   1.655
 8321WAT      O25504   5.548   5.778   1.227
 8321WAT     H125505   5.544   5.688   1.271
 8321WAT     H225506   5.551   5.767   1.128
 8322WAT      O25507   4.152   6.010   0.520
 8322WAT     H125508   4.182   5.938   0.458
 8322WAT     H225509   4.113   5.970   0.603
 8323WAT      O25510   5.429   7.073   1.104
 8323WAT     H125511   5.336   7.048   1.077
 8323WAT     H225512   5.455   7.023   1.186
 8324WAT      O25513   4.041   6.133   1.280
 8324WAT     H125514   4.079   6.074   1.352
 8324WAT     H225515   4.081   6.107   1.192
 8325WAT      O25516   5.148   5.800   1.112
 8325WAT     H125517   5.200   5.735   1.167
 8325WAT     H225518   5.099   5.863   1.173
 8326WAT      O25519   4.725   5.620   1.154
 8326WAT     H125520   4.662   5.548   1.123
 8326WAT     H225521   4.818   5.584   1.154
 8327WAT      O25522   4.494   6.916   0.301
 8327WAT     H125523   4.448   6.829   0.318
 8327WAT     H225524   4.585   6.913   0.342
 8328WAT      O25525   5.076   5.638   0.168
 8328WAT     H125526   5.111   5.597   0.084
 8328WAT     H225527   4.986   5.600   0.188
 8329WAT      O25528   5.024   6.039   0.691
 8329WAT     H125529   4.965   6.119   0.695
 8329WAT     H225530   5.039   6.004   0.784
 8330WAT      O25531   5.317   5.807   0.882
 8330WAT     H125532   5.233   5.806   0.936
 8330WAT     H225533   5.319   5.890   0.826
 8331WAT      O25534   3.763   6.663   0.300
 8331WAT     H125535   3.862   6.652   0.291
 8331WAT     H225536   3.723   6.577   0.332
 8332WAT      O25537   3.954   6.214   1.975
 8332WAT     H125538   3.861   6.212   2.012
 8332WAT     H225539   3.955   6.175   1.883
 8333WAT      O25540   3.949   5.861   2.858
 8333WAT     H125541   3.984   5.844   2.950
 8333WAT     H225542   3.861   5.816   2.846
 8334WAT      O25543   3.743   5.954   2.509
 8334WAT     H125544   3.661   5.997   2.548
 8334WAT     H225545   3.715   5.881   2.446
 8335WAT      O25546   4.293   6.861   3.027
 8335WAT     H125547   4.200   6.854   2.990
 8335WAT     H225548   4.304   6.950   3.071
 8336WAT      O25549   5.279   7.097   2.565
 8336WAT     H125550   5.222   7.081   2.646
 8336WAT     H225551   5.220   7.107   2.485
 8337WAT      O25552   4.859   6.289   2.579
 8337WAT     H125553   4.916   6.367   2.554
 8337WAT     H225554   4.799   6.315   2.655
 8338WAT      O25555   5.479   6.193   2.093
 8338WAT     H125556   5.467   6.180   1.994
 8338WAT     H225557   5.449   6.112   2.142
 8339WAT      O25558   4.492   6.730   2.885
 8339WAT     H125559   4.414   6.747   2.945
 8339WAT     H225560   4.526   6.817   2.849
 8340WAT      O25561   4.574   6.384   3.685
 8340WAT     H125562   4.570   6.460   3.750
 8340WAT     H225563   4.596   6.420   3.594
 8341WAT      O25564   4.409   6.598   2.527
 8341WAT     H125565   4.478   6.582   2.597
 8341WAT     H225566   4.336   6.655   2.565
 8342WAT      O25567   4.410   6.747   3.665
 8342WAT     H125568   4.470   6.826   3.679
 8342WAT     H225569   4.324   6.778   3.624
 8343WAT      O25570   4.059   7.021   2.923
 8343WAT     H125571   3.981   6.990   2.870
 8343WAT     H225572   4.117   7.079   2.866
 8344WAT      O25573   4.162   5.978   3.361
 8344WAT     H125574   4.244   5.922   3.370
 8344WAT     H225575   4.081   5.920   3.365
 8345WAT      O25576   5.327   6.033   2.599
 8345WAT     H125577   5.253   6.079   2.549
 8345WAT     H225578   5.378   6.101   2.652
 8346WAT      O25579   3.964   6.677   2.748
 8346WAT     H125580   3.978   6.593   2.800
 8346WAT     H225581   3.909   6.741   2.803
 8347WAT      O25582   4.330   6.550   1.985
 8347WAT     H125583   4.337   6.634   1.931
 8347WAT     H225584   4.376   6.563   2.073
 8348WAT      O25585   5.318   5.700   3.342
 8348WAT     H125586   5.300   5.767   3.270
 8348WAT     H225587   5.315   5.746   3.431
 8349WAT      O25588   3.846   6.229   2.425
 8349WAT     H125589   3.801   6.141   2.442
 8349WAT     H225590   3.845   6.283   2.509
 8350WAT      O25591   5.413   6.508   2.474
 8350WAT     H125592   5.508   6.479   2.482
 8350WAT     H225593   5.405   6.573   2.399
 8351WAT      O25594   5.365   6.694   2.294
 8351WAT     H125595   5.451   6.696   2.242
 8351WAT     H225596   5.379   6.741   2.382
 8352WAT      O25597   3.837   6.323   3.459
 8352WAT     H125598   3.925   6.310   3.504
 8352WAT     H225599   3.824   6.420   3.437
 8353WAT      O25600   5.017   6.814   3.285
 8353WAT     H125601   5.054   6.741   3.227
 8353WAT     H225602   5.069   6.819   3.370
 8354WAT      O25603   4.533   5.590   2.364
 8354WAT     H125604   4.573   5.681   2.355
 8354WAT     H225605   4.433   5.598   2.370
 8355WAT      O25606   3.921   6.562   3.126
 8355WAT     H125607   4.010   6.517   3.112
 8355WAT     H225608   3.848   6.497   3.107
 8356WAT      O25609   5.249   6.585   2.052
 8356WAT     H125610   5.186   6.509   2.065
 8356WAT     H225611   5.297   6.603   2.138
 8357WAT      O25612   4.041   5.837   3.663
 8357WAT     H125613   4.112   5.908   3.669
 8357WAT     H225614   3.953   5.876   3.691
 8358WAT      O25615   5.190   7.003   2.815
 8358WAT     H125616   5.131   7.009   2.895
 8358WAT     H225617   5.175   6.915   2.769
 8359WAT      O25618   4.322   6.315   2.132
 8359WAT     H125619   4.346   6.384   2.064
 8359WAT     H225620   4.244   6.348   2.186
 8360WAT      O25621   5.005   5.931   2.806
 8360WAT     H125622   4.919   5.881   2.793
 8360WAT     H225623   5.067   5.877   2.862
 8361WAT      O25624   4.531   6.191   3.327
 8361WAT     H125625   4.484   6.188   3.416
 8361WAT     H225626   4.480   6.136   3.261
 8362WAT      O25627   5.118   6.055   3.536
 8362WAT     H125628   5.098   6.098   3.624
 8362WAT     H225629   5.196   5.993   3.545
 8363WAT      O25630   4.697   6.476   3.434
 8363WAT     H125631   4.743   6.392   3.405
 8363WAT     H225632   4.641   6.510   3.359
 8364WAT      O25633   4.715   5.996   3.104
 8364WAT     H125634   4.638   6.030   3.158
 8364WAT     H225635   4.681   5.945   3.025
 8365WAT      O25636   4.765   6.287   2.291
 8365WAT     H125637   4.791   6.283   2.387
 8365WAT     H225638   4.680   6.236   2.277
 8366WAT      O25639   3.800   6.397   2.651
 8366WAT     H125640   3.899   6.385   2.660
 8366WAT     H225641   3.776   6.492   2.672
 8367WAT      O25642   4.589   5.934   2.057
 8367WAT     H125643   4.648   5.997   2.008
 8367WAT     H225644   4.608   5.840   2.028
 8368WAT      O25645   5.443   6.171   3.693
 8368WAT     H125646   5.417   6.260   3.657
 8368WAT     H225647   5.441   6.103   3.620
 8369WAT      O25648   5.086   6.730   2.407
 8369WAT     H125649   5.169   6.701   2.359
 8369WAT     H225650   5.037   6.797   2.351
 8370WAT      O25651   4.274   5.782   2.747
 8370WAT     H125652   4.269   5.777   2.847
 8370WAT     H225653   4.276   5.878   2.718
 8371WAT      O25654   5.519   6.652   2.735
 8371WAT     H125655   5.457   6.637   2.659
 8371WAT     H225656   5.467   6.663   2.820
 8372WAT      O25657   4.045   6.529   2.104
 8372WAT     H125658   4.127   6.568   2.062
 8372WAT     H225659   4.018   6.447   2.055
 8373WAT      O25660   5.182   6.321   2.590
 8373WAT     H125661   5.177   6.256   2.665
 8373WAT     H225662   5.262   6.380   2.603
 8374WAT      O25663   3.926   5.871   3.360
 8374WAT     H125664   3.846   5.931   3.347
 8374WAT     H225665   3.916   5.822   3.446
 8375WAT      O25666   5.356   6.963   1.943
 8375WAT     H125667   5.324   7.057   1.933
 8375WAT     H225668   5.280   6.900   1.931
 8376WAT      O25669   5.124   5.693   2.288
 8376WAT     H125670   5.100   5.656   2.198
 8376WAT     H225671   5.223   5.709   2.292
 8377WAT      O25672   4.106   6.286   2.342
 8377WAT     H125673   4.151   6.196   2.339
 8377WAT     H225674   4.012   6.275   2.375
 8378WAT      O25675   5.271   5.808   3.591
 8378WAT     H125676   5.266   5.845   3.683
 8378WAT     H225677   5.199   5.739   3.579
 8379WAT      O25678   4.338   5.708   1.979
 8379WAT     H125679   4.436   5.686   1.986
 8379WAT     H225680   4.307   5.691   1.886
 8380WAT      O25681   4.505   5.850   3.611
 8380WAT     H125682   4.572   5.789   3.654
 8380WAT     H225683   4.432   5.869   3.676
 8381WAT      O25684   5.075   6.176   3.295
 8381WAT     H125685   5.103   6.133   3.380
 8381WAT     H225686   5.100   6.272   3.296
 8382WAT      O25687   4.646   6.089   2.761
 8382WAT     H125688   4.621   6.080   2.665
 8382WAT     H225689   4.694   6.007   2.792
 8383WAT      O25690   4.263   5.650   2.374
 8383WAT     H125691   4.182   5.651   2.432
 8383WAT     H225692   4.266   5.733   2.319
 8384WAT      O25693   5.158   6.774   1.903
 8384WAT     H125694   5.190   6.698   1.960
 8384WAT     H225695   5.066   6.801   1.933
 8385WAT      O25696   4.021   5.621   2.033
 8385WAT     H125697   4.070   5.705   2.012
 8385WAT     H225698   4.083   5.556   2.078
 8386WAT      O25699   4.659   5.822   2.342
 8386WAT     H125700   4.611   5.863   2.264
 8386WAT     H225701   4.758   5.820   2.323
 8387WAT      O25702   4.800   6.269   3.326
 8387WAT     H125703   4.720   6.208   3.329
 8387WAT     H225704   4.881   6.216   3.302
 8388WAT      O25705   4.951   7.156   2.655
 8388WAT     H125706   4.972   7.230   2.590
 8388WAT     H225707   5.019   7.156   2.728
 8389WAT      O25708   4.183   6.738   2.603
 8389WAT     H125709   4.112   6.711   2.668
 8389WAT     H225710   4.157   6.710   2.510
 8390WAT      O25711   4.756   6.135   1.878
 8390WAT     H125712   4.715   6.217   1.839
 8390WAT     H225713   4.820   6.161   1.951
 8391WAT      O25714   3.802   6.142   3.248
 8391WAT     H125715   3.894   6.141   3.207
 8391WAT     H225716   3.796   6.216   3.315
 8392WAT      O25717   4.285   5.808   3.009
 8392WAT     H125718   4.323   5.724   3.046
 8392WAT     H225719   4.197   5.827   3.053
 8393WAT      O25720   4.590   6.040   2.504
 8393WAT     H125721   4.558   6.112   2.442
 8393WAT     H225722   4.614   5.959   2.451
 8394WAT      O25723   4.741   5.625   2.615
 8394WAT     H125724   4.669   5.630   2.546
 8394WAT     H225725   4.717   5.556   2.684
 8395WAT      O25726   5.153   6.759   2.729
 8395WAT     H125727   5.098   6.675   2.722
 8395WAT     H225728   5.179   6.788   2.637
 8396WAT      O25729   5.190   6.176   2.854
 8396WAT     H125730   5.160   6.081   2.861
 8396WAT     H225731   5.263   6.192   2.920
 8397WAT      O25732   5.581   6.419   2.239
 8397WAT     H125733   5.623   6.355   2.303
 8397WAT     H225734   5.543   6.368   2.161
 8398WAT      O25735   5.388   6.866   2.519
 8398WAT     H125736   5.487   6.874   2.533
 8398WAT     H225737   5.343   6.950   2.550
 8399WAT      O25738   5.114   6.161   1.940
 8399WAT     H125739   5.060   6.140   2.021
 8399WAT     H225740   5.205   6.120   1.949
 8400WAT      O25741   4.251   5.842   2.190
 8400WAT     H125742   4.278   5.783   2.115
 8400WAT     H225743   4.251   5.937   2.159
 8401WAT      O25744   5.478   6.809   3.450
 8401WAT     H125745   5.569   6.770   3.437
 8401WAT     H225746   5.486   6.905   3.474
 8402WAT      O25747   4.788   6.933   3.202
 8402WAT     H125748   4.708   6.910   3.257
 8402WAT     H225749   4.871   6.907   3.251
 8403WAT      O25750   4.835   6.781   2.962
 8403WAT     H125751   4.795   6.825   3.043
 8403WAT     H225752   4.794   6.818   2.879
 8404WAT      O25753   5.362   6.685   2.941
 8404WAT     H125754   5.367   6.766   3.000
 8404WAT     H225755   5.276   6.687   2.890
 8405WAT      O25756   4.639   5.675   3.264
 8405WAT     H125757   4.664   5.655   3.169
 8405WAT     H225758   4.711   5.731   3.306
 8406WAT      O25759   4.704   6.702   3.581
 8406WAT     H125760   4.605   6.708   3.591
 8406WAT     H225761   4.727   6.622   3.525
 8407WAT      O25762   4.429   6.636   2.230
 8407WAT     H125763   4.415   6.643   2.329
 8407WAT     H225764   4.513   6.585   2.212
 8408WAT      O25765   4.134   6.399   3.113
 8408WAT     H125766   4.220   6.411   3.163
 8408WAT     H225767   4.092   6.312   3.140
 8409WAT      O25768   4.998   5.972   3.124
 8409WAT     H125769   5.019   6.046   3.188
 8409WAT     H225770   4.909   5.989   3.081
 8410WAT      O25771   4.091   6.686   2.363
 8410WAT     H125772   4.084   6.769   2.307
 8410WAT     H225773   4.095   6.606   2.303
 8411WAT      O25774   4.290   6.123   2.727
 8411WAT     H125775   4.302   6.189   2.653
 8411WAT     H225776   4.336   6.157   2.810
 8412WAT      O25777   5.306   6.225   2.334
 8412WAT     H125778   5.275   6.286   2.407
 8412WAT     H225779   5.356   6.277   2.265
 8413WAT      O25780   4.126   6.337   3.460
 8413WAT     H125781   4.194   6.392   3.413
 8413WAT     H225782   4.166   6.249   3.487
 8414WAT      O25783   5.311   6.365   3.532
 8414WAT     H125784   5.219   6.403   3.527
 8414WAT     H225785   5.371   6.412   3.467
 8415WAT      O25786   4.737   5.691   3.632
 8415WAT     H125787   4.743   5.776   3.580
 8415WAT     H225788   4.769   5.615   3.575
 8416WAT      O25789   4.228   5.636   3.602
 8416WAT     H125790   4.186   5.579   3.532
 8416WAT     H225791   4.162   5.705   3.634
 8417WAT      O25792   4.297   6.456   2.891
 8417WAT     H125793   4.341   6.545   2.882
 8417WAT     H225794   4.234   6.456   2.968
 8418WAT      O25795   5.084   6.448   2.907
 8418WAT     H125796   5.009   6.448   2.841
 8418WAT     H225797   5.121   6.356   2.916
 8419WAT      O25798   4.933   6.111   2.137
 8419WAT     H125799   4.946   6.027   2.191
 8419WAT     H225800   4.904   6.185   2.197
 8420WAT      O25801   4.031   5.799   3.093
 8420WAT     H125802   4.008   5.836   3.183
 8420WAT     H225803   4.001   5.704   3.087
 8421WAT      O25804   3.761   6.896   3.144
 8421WAT     H125805   3.814   6.847   3.212
 8421WAT     H225806   3.783   6.994   3.149
 8422WAT      O25807   4.456   6.220   2.926
 8422WAT     H125808   4.515   6.194   2.850
 8422WAT     H225809   4.428   6.316   2.915
 8423WAT      O25810   5.452   6.521   3.716
 8423WAT     H125811   5.406   6.514   3.627
 8423WAT     H225812   5.390   6.565   3.782
 8424WAT      O25813   4.031   5.649   2.480
 8424WAT     H125814   4.020   5.743   2.513
 8424WAT     H225815   4.026   5.586   2.557
 8425WAT      O25816   5.346   5.953   2.236
 8425WAT     H125817   5.348   5.877   2.300
 8425WAT     H225818   5.298   6.030   2.276
 8426WAT      O25819   4.747   6.352   2.828
 8426WAT     H125820   4.762   6.373   2.924
 8426WAT     H225821   4.717   6.257   2.819
 8427WAT      O25822   5.583   7.104   3.467
 8427WAT     H125823   5.597   7.131   3.372
 8427WAT     H225824   5.666   7.126   3.520
 8428WAT      O25825   4.074   6.484   3.666
 8428WAT     H125826   4.150   6.528   3.714
 8428WAT     H225827   4.109   6.437   3.584
 8429WAT      O25828   5.264   5.860   1.987
 8429WAT     H125829   5.203   5.785   2.010
 8429WAT     H225830   5.286   5.912   2.070
 8430WAT      O25831   5.027   6.424   1.904
 8430WAT     H125832   5.061   6.331   1.919
 8430WAT     H225833   5.045   6.451   1.809
 8431WAT      O25834   4.043   6.396   2.811
 8431WAT     H125835   4.136   6.432   2.816
 8431WAT     H225836   4.037   6.311   2.863
 8432WAT      O25837   4.063   6.095   2.868
 8432WAT     H125838   4.011   6.012   2.851
 8432WAT     H225839   4.140   6.100   2.804
 8433WAT      O25840   4.862   5.966   3.540
 8433WAT     H125841   4.817   6.029   3.604
 8433WAT     H225842   4.955   5.997   3.523
 8434WAT      O25843   4.884   5.793   3.339
 8434WAT     H125844   4.884   5.857   3.416
 8434WAT     H225845   4.912   5.841   3.256
 8435WAT      O25846   3.732   6.912   2.062
 8435WAT     H125847   3.639   6.933   2.031
 8435WAT     H225848   3.742   6.813   2.075
 8436WAT      O25849   4.726   6.382   3.100
 8436WAT     H125850   4.767   6.350   3.186
 8436WAT     H225851   4.630   6.355   3.097
 8437WAT      O25852   3.764   6.130   2.976
 8437WAT     H125853   3.849   6.097   2.935
 8437WAT     H225854   3.777   6.145   3.074
 8438WAT      O25855   3.913   6.106   3.584
 8438WAT     H125856   3.972   6.066   3.514
 8438WAT     H225857   3.855   6.177   3.543
 8439WAT      O25858   5.093   6.536   3.522
 8439WAT     H125859   5.132   6.625   3.542
 8439WAT     H225860   5.103   6.516   3.425
 8440WAT      O25861   4.539   6.158   2.187
 8440WAT     H125862   4.546   6.069   2.141
 8440WAT     H225863   4.445   6.192   2.179
 8441WAT      O25864   5.381   6.190   3.068
 8441WAT     H125865   5.343   6.121   3.130
 8441WAT     H225866   5.463   6.154   3.024
 8442WAT      O25867   4.395   6.050   3.131
 8442WAT     H125868   4.361   5.961   3.101
 8442WAT     H225869   4.421   6.104   3.051
 8443WAT      O25870   4.197   6.086   2.053
 8443WAT     H125871   4.258   6.166   2.057
 8443WAT     H225872   4.102   6.117   2.060
 8444WAT      O25873   3.883   6.723   3.328
 8444WAT     H125874   3.905   6.662   3.404
 8444WAT     H225875   3.893   6.674   3.242
 8445WAT      O25876   5.071   6.645   3.096
 8445WAT     H125877   5.095   6.582   3.022
 8445WAT     H225878   4.981   6.685   3.078
 8446WAT      O25879   5.026   6.441   2.171
 8446WAT     H125880   4.940   6.410   2.213
 8446WAT     H225881   5.022   6.427   2.072
 8447WAT      O25882   3.807   6.844   2.884
 8447WAT     H125883   3.802   6.843   2.984
 8447WAT     H225884   3.724   6.803   2.846
 8448WAT      O25885   5.450   5.721   2.385
 8448WAT     H125886   5.523   5.704   2.318
 8448WAT     H225887   5.419   5.634   2.423
 8449WAT      O25888   5.004   6.513   2.534
 8449WAT     H125889   5.064   6.432   2.536
 8449WAT     H225890   5.044   6.582   2.474
 8450WAT      O25891   4.554   6.859   3.284
 8450WAT     H125892   4.549   6.892   3.379
 8450WAT     H225893   4.468   6.878   3.238
 8451WAT      O25894   5.565   5.761   2.825
 8451WAT     H125895   5.604   5.676   2.789
 8451WAT     H225896   5.467   5.763   2.806
 8452WAT      O25897   3.987   5.912   2.582
 8452WAT     H125898   3.908   5.963   2.548
 8452WAT     H225899   3.978   5.897   2.680
 8453WAT      O25900   4.918   7.198   1.893
 8453WAT     H125901   4.924   7.105   1.930
 8453WAT     H225902   4.859   7.198   1.813
 8454WAT      O25903   4.546   6.588   3.234
 8454WAT     H125904   4.586   6.587   3.142
 8454WAT     H225905   4.556   6.680   3.274
 8455WAT      O25906   4.640   6.496   2.153
 8455WAT     H125907   4.703   6.534   2.085
 8455WAT     H225908   4.680   6.413   2.192
 8456WAT      O25909   4.096   6.874   3.352
 8456WAT     H125910   4.083   6.967   3.318
 8456WAT     H225911   4.012   6.822   3.339
 8457WAT      O25912   5.338   6.878   3.151
 8457WAT     H125913   5.398   6.881   3.231
 8457WAT     H225914   5.263   6.942   3.164
 8458WAT      O25915   4.763   6.684   2.558
 8458WAT     H125916   4.693   6.637   2.612
 8458WAT     H225917   4.822   6.616   2.515
 8459WAT      O25918   4.738   5.822   2.833
 8459WAT     H125919   4.730   5.786   2.740
 8459WAT     H225920   4.736   5.746   2.898
 8460WAT      O25921   5.433   5.971   3.243
 8460WAT     H125922   5.506   6.040   3.247
 8460WAT     H225923   5.461   5.896   3.184
 8461WAT      O25924   3.829   6.599   3.588
 8461WAT     H125925   3.752   6.566   3.642
 8461WAT     H225926   3.914   6.569   3.630
 8462WAT      O25927   4.396   5.789   3.351
 8462WAT     H125928   4.486   5.773   3.311
 8462WAT     H225929   4.404   5.794   3.450
 8463WAT      O25930   3.799   5.931   1.895
 8463WAT     H125931   3.707   5.903   1.866
 8463WAT     H225932   3.830   6.008   1.839
 8464WAT      O25933   5.164   6.442   3.260
 8464WAT     H125934   5.107   6.494   3.197
 8464WAT     H225935   5.260   6.454   3.236
 8465WAT      O25936   3.796   5.752   2.180
 8465WAT     H125937   3.779   5.835   2.126
 8465WAT     H225938   3.886   5.715   2.158
 8466WAT      O25939   4.337   6.428   3.293
 8466WAT     H125940   4.393   6.509   3.276
 8466WAT     H225941   4.396   6.348   3.296
 8467WAT      O25942   4.440   6.151   3.570
 8467WAT     H125943   4.459   6.216   3.644
 8467WAT     H225944   4.500   6.071   3.579
 8468WAT      O25945   5.174   6.806   3.495
 8468WAT     H125946   5.165   6.796   3.594
 8468WAT     H225947   5.270   6.799   3.469
 8469WAT      O25948   5.398   6.469   3.116
 8469WAT     H125949   5.371   6.380   3.079
 8469WAT     H225950   5.399   6.537   3.043
 8470WAT      O25951   4.949   5.911   2.311
 8470WAT     H125952   5.014   5.837   2.300
 8470WAT     H225953   4.969   5.961   2.395
 8471WAT      O25954   4.318   6.331   2.514
 8471WAT     H125955   4.368   6.416   2.495
 8471WAT     H225956   4.230   6.333   2.466
 8472WAT      O25957   5.501   5.928   3.504
 8472WAT     H125958   5.484   5.959   3.410
 8472WAT     H225959   5.417   5.891   3.542
 8473WAT      O25960   5.454   6.520   3.379
 8473WAT     H125961   5.492   6.611   3.394
 8473WAT     H225962   5.446   6.503   3.280
 8474WAT      O25963   4.583   6.542   2.723
 8474WAT     H125964   4.637   6.473   2.771
 8474WAT     H225965   4.551   6.611   2.789
 8475WAT      O25966   4.807   6.570   1.949
 8475WAT     H125967   4.784   6.623   1.867
 8475WAT     H225968   4.888   6.514   1.930
 8476WAT      O25969   3.945   6.900   3.706
 8476WAT     H125970   3.880   6.827   3.685
 8476WAT     H225971   3.949   6.914   3.804
 8477WAT      O25972   3.803   6.826   2.515
 8477WAT     H125973   3.802   6.779   2.603
 8477WAT     H225974   3.885   6.798   2.464
 8478WAT      O25975   4.396   6.977   3.486
 8478WAT     H125976   4.318   6.927   3.524
 8478WAT     H225977   4.393   7.072   3.517
 8479WAT      O25978   5.548   5.778   3.089
 8479WAT     H125979   5.544   5.688   3.133
 8479WAT     H225980   5.551   5.767   2.990
 8480WAT      O25981   4.152   6.010   2.382
 8480WAT     H125982   4.182   5.938   2.320
 8480WAT     H225983   4.113   5.970   2.465
 8481WAT      O25984   5.429   7.073   2.966
 8481WAT     H125985   5.336   7.048   2.939
 8481WAT     H225986   5.455   7.023   3.048
 8482WAT      O25987   4.041   6.133   3.142
 8482WAT     H125988   4.079   6.074   3.214
 8482WAT     H225989   4.081   6.107   3.054
 8483WAT      O25990   5.148   5.800   2.974
 8483WAT     H125991   5.200   5.735   3.029
 8483WAT     H225992   5.099   5.863   3.035
 8484WAT      O25993   4.725   5.620   3.016
 8484WAT     H125994   4.662   5.548   2.985
 8484WAT     H225995   4.818   5.584   3.016
 8485WAT      O25996   4.494   6.916   2.163
 8485WAT     H125997   4.448   6.829   2.180
 8485WAT     H225998   4.585   6.913   2.204
 8486WAT      O25999   5.076   5.638   2.030
 8486WAT     H126000   5.111   5.597   1.946
 8486WAT     H226001   4.986   5.600   2.050
 8487WAT      O26002   5.024   6.039   2.553
 8487WAT     H126003   4.965   6.119   2.557
 8487WAT     H226004   5.039   6.004   2.646
 8488WAT      O26005   5.317   5.807   2.744
 8488WAT     H126006   5.233   5.806   2.798
 8488WAT     H226007   5.319   5.890   2.688
 8489WAT      O26008   3.763   6.663   2.162
 8489WAT     H126009   3.862   6.652   2.153
 8489WAT     H226010   3.723   6.577   2.194
 8490WAT      O26011   3.954   6.214   3.837
 8490WAT     H126012   3.861   6.212   3.874
 8490WAT     H226013   3.955   6.175   3.745
 8491WAT      O26014   3.949   5.861   4.720
 8491WAT     H126015   3.984   5.844   4.812
 8491WAT     H226016   3.861   5.816   4.708
 8492WAT      O26017   3.743   5.954   4.371
 8492WAT     H126018   3.661   5.997   4.410
 8492WAT     H226019   3.715   5.881   4.308
 8493WAT      O26020   4.293   6.861   4.889
 8493WAT     H126021   4.200   6.854   4.852
 8493WAT     H226022   4.304   6.950   4.933
 8494WAT      O26023   5.279   7.097   4.427
 8494WAT     H126024   5.222   7.081   4.508
 8494WAT     H226025   5.220   7.107   4.347
 8495WAT      O26026   4.859   6.289   4.441
 8495WAT     H126027   4.916   6.367   4.416
 8495WAT     H226028   4.799   6.315   4.517
 8496WAT      O26029   5.479   6.193   3.955
 8496WAT     H126030   5.467   6.180   3.856
 8496WAT     H226031   5.449   6.112   4.004
 8497WAT      O26032   4.492   6.730   4.747
 8497WAT     H126033   4.414   6.747   4.807
 8497WAT     H226034   4.526   6.817   4.711
 8498WAT      O26035   4.574   6.384   5.547
 8498WAT     H126036   4.570   6.460   5.612
 8498WAT     H226037   4.596   6.420   5.456
 8499WAT      O26038   4.409   6.598   4.389
 8499WAT     H126039   4.478   6.582   4.459
 8499WAT     H226040   4.336   6.655   4.427
 8500WAT      O26041   4.410   6.747   5.527
 8500WAT     H126042   4.470   6.826   5.541
 8500WAT     H226043   4.324   6.778   5.486
 8501WAT      O26044   4.059   7.021   4.785
 8501WAT     H126045   3.981   6.990   4.732
 8501WAT     H226046   4.117   7.079   4.728
 8502WAT      O26047   4.162   5.978   5.223
 8502WAT     H126048   4.244   5.922   5.232
 8502WAT     H226049   4.081   5.920   5.227
 8503WAT      O26050   5.327   6.033   4.461
 8503WAT     H126051   5.253   6.079   4.411
 8503WAT     H226052   5.378   6.101   4.514
 8504WAT      O26053   3.964   6.677   4.610
 8504WAT     H126054   3.978   6.593   4.662
 8504WAT     H226055   3.909   6.741   4.665
 8505WAT      O26056   4.330   6.550   3.847
 8505WAT     H126057   4.337   6.634   3.793
 8505WAT     H226058   4.376   6.563   3.935
 8506WAT      O26059   5.318   5.700   5.204
 8506WAT     H126060   5.300   5.767   5.132
 8506WAT     H226061   5.315   5.746   5.293
 8507WAT      O26062   3.846   6.229   4.287
 8507WAT     H126063   3.801   6.141   4.304
 8507WAT     H226064   3.845   6.283   4.371
 8508WAT      O26065   5.413   6.508   4.336
 8508WAT     H126066   5.508   6.479   4.344
 8508WAT     H226067   5.405   6.573   4.261
 8509WAT      O26068   5.365   6.694   4.156
 8509WAT     H126069   5.451   6.696   4.104
 8509WAT     H226070   5.379   6.741   4.244
 8510WAT      O26071   3.837   6.323   5.321
 8510WAT     H126072   3.925   6.310   5.366
 8510WAT     H226073   3.824   6.420   5.299
 8511WAT      O26074   5.017   6.814   5.147
 8511WAT     H126075   5.054   6.741   5.089
 8511WAT     H226076   5.069   6.819   5.232
 8512WAT      O26077   4.533   5.590   4.226
 8512WAT     H126078   4.573   5.681   4.217
 8512WAT     H226079   4.433   5.598   4.232
 8513WAT      O26080   3.921   6.562   4.988
 8513WAT     H126081   4.010   6.517   4.974
 8513WAT     H226082   3.848   6.497   4.969
 8514WAT      O26083   5.249   6.585   3.914
 8514WAT     H126084   5.186   6.509   3.927
 8514WAT     H226085   5.297   6.603   4.000
 8515WAT      O26086   4.041   5.837   5.525
 8515WAT     H126087   4.112   5.908   5.531
 8515WAT     H226088   3.953   5.876   5.553
 8516WAT      O26089   5.190   7.003   4.677
 8516WAT     H126090   5.131   7.009   4.757
 8516WAT     H226091   5.175   6.915   4.631
 8517WAT      O26092   4.322   6.315   3.994
 8517WAT     H126093   4.346   6.384   3.926
 8517WAT     H226094   4.244   6.348   4.048
 8518WAT      O26095   5.005   5.931   4.668
 8518WAT     H126096   4.919   5.881   4.655
 8518WAT     H226097   5.067   5.877   4.724
 8519WAT      O26098   4.531   6.191   5.189
 8519WAT     H126099   4.484   6.188   5.278
 8519WAT     H226100   4.480   6.136   5.123
 8520WAT      O26101   5.118   6.055   5.398
 8520WAT     H126102   5.098   6.098   5.486
 8520WAT     H226103   5.196   5.993   5.407
 8521WAT      O26104   4.697   6.476   5.296
 8521WAT     H126105   4.743   6.392   5.267
 8521WAT     H226106   4.641   6.510   5.221
 8522WAT      O26107   4.715   5.996   4.966
 8522WAT     H126108   4.638   6.030   5.020
 8522WAT     H226109   4.681   5.945   4.887
 8523WAT      O26110   4.765   6.287   4.153
 8523WAT     H126111   4.791   6.283   4.249
 8523WAT     H226112   4.680   6.236   4.139
 8524WAT      O26113   3.800   6.397   4.513
 8524WAT     H126114   3.899   6.385   4.522
 8524WAT     H226115   3.776   6.492   4.534
 8525WAT      O26116   4.589   5.934   3.919
 8525WAT     H126117   4.648   5.997   3.870
 8525WAT     H226118   4.608   5.840   3.890
 8526WAT      O26119   5.443   6.171   5.555
 8526WAT     H126120   5.417   6.260   5.519
 8526WAT     H226121   5.441   6.103   5.482
 8527WAT      O26122   5.086   6.730   4.269
 8527WAT     H126123   5.169   6.701   4.221
 8527WAT     H226124   5.037   6.797   4.213
 8528WAT      O26125   4.274   5.782   4.609
 8528WAT     H126126   4.269   5.777   4.709
 8528WAT     H226127   4.276   5.878   4.580
 8529WAT      O26128   5.519   6.652   4.597
 8529WAT     H126129   5.457   6.637   4.521
 8529WAT     H226130   5.467   6.663   4.682
 8530WAT      O26131   4.045   6.529   3.966
 8530WAT     H126132   4.127   6.568   3.924
 8530WAT     H226133   4.018   6.447   3.917
 8531WAT      O26134   5.182   6.321   4.452
 8531WAT     H126135   5.177   6.256   4.527
 8531WAT     H226136   5.262   6.380   4.465
 8532WAT      O26137   3.926   5.871   5.222
 8532WAT     H126138   3.846   5.931   5.209
 8532WAT     H226139   3.916   5.822   5.308
 8533WAT      O26140   5.356   6.963   3.805
 8533WAT     H126141   5.324   7.057   3.795
 8533WAT     H226142   5.280   6.900   3.793
 8534WAT      O26143   5.124   5.693   4.150
 8534WAT     H126144   5.100   5.656   4.060
 8534WAT     H226145   5.223   5.709   4.154
 8535WAT      O26146   4.106   6.286   4.204
 8535WAT     H126147   4.151   6.196   4.201
 8535WAT     H226148   4.012   6.275   4.237
 8536WAT      O26149   5.271   5.808   5.453
 8536WAT     H126150   5.266   5.845   5.545
 8536WAT     H226151   5.199   5.739   5.441
 8537WAT      O26152   4.338   5.708   3.841
 8537WAT     H126153   4.436   5.686   3.848
 8537WAT     H226154   4.307   5.691   3.748
 8538WAT      O26155   4.505   5.850   5.473
 8538WAT     H126156   4.572   5.789   5.516
 8538WAT     H226157   4.432   5.869   5.538
 8539WAT      O26158   5.075   6.176   5.157
 8539WAT     H126159   5.103   6.133   5.242
 8539WAT     H226160   5.100   6.272   5.158
 8540WAT      O26161   4.646   6.089   4.623
 8540WAT     H126162   4.621   6.080   4.527
 8540WAT     H226163   4.694   6.007   4.654
 8541WAT      O26164   4.263   5.650   4.236
 8541WAT     H126165   4.182   5.651   4.294
 8541WAT     H226166   4.266   5.733   4.181
 8542WAT      O26167   5.158   6.774   3.765
 8542WAT     H126168   5.190   6.698   3.822
 8542WAT     H226169   5.066   6.801   3.795
 8543WAT      O26170   4.021   5.621   3.895
 8543WAT     H126171   4.070   5.705   3.874
 8543WAT     H226172   4.083   5.556   3.940
 8544WAT      O26173   4.659   5.822   4.204
 8544WAT     H126174   4.611   5.863   4.126
 8544WAT     H226175   4.758   5.820   4.185
 8545WAT      O26176   4.800   6.269   5.188
 8545WAT     H126177   4.720   6.208   5.191
 8545WAT     H226178   4.881   6.216   5.164
 8546WAT      O26179   4.951   7.156   4.517
 8546WAT     H126180   4.972   7.230   4.452
 8546WAT     H226181   5.019   7.156   4.590
 8547WAT      O26182   4.183   6.738   4.465
 8547WAT     H126183   4.112   6.711   4.530
 8547WAT     H226184   4.157   6.710   4.372
 8548WAT      O26185   4.756   6.135   3.740
 8548WAT     H126186   4.715   6.217   3.701
 8548WAT     H226187   4.820   6.161   3.813
 8549WAT      O26188   3.802   6.142   5.110
 8549WAT     H126189   3.894   6.141   5.069
 8549WAT     H226190   3.796   6.216   5.177
 8550WAT      O26191   4.285   5.808   4.871
 8550WAT     H126192   4.323   5.724   4.908
 8550WAT     H226193   4.197   5.827   4.915
 8551WAT      O26194   4.590   6.040   4.366
 8551WAT     H126195   4.558   6.112   4.304
 8551WAT     H226196   4.614   5.959   4.313
 8552WAT      O26197   4.741   5.625   4.477
 8552WAT     H126198   4.669   5.630   4.408
 8552WAT     H226199   4.717   5.556   4.546
 8553WAT      O26200   5.153   6.759   4.591
 8553WAT     H126201   5.098   6.675   4.584
 8553WAT     H226202   5.179   6.788   4.499
 8554WAT      O26203   5.190   6.176   4.716
 8554WAT     H126204   5.160   6.081   4.723
 8554WAT     H226205   5.263   6.192   4.782
 8555WAT      O26206   5.581   6.419   4.101
 8555WAT     H126207   5.623   6.355   4.165
 8555WAT     H226208   5.543   6.368   4.023
 8556WAT      O26209   5.388   6.866   4.381
 8556WAT     H126210   5.487   6.874   4.395
 8556WAT     H226211   5.343   6.950   4.412
 8557WAT      O26212   5.114   6.161   3.802
 8557WAT     H126213   5.060   6.140   3.883
 8557WAT     H226214   5.205   6.120   3.811
 8558WAT      O26215   4.251   5.842   4.052
 8558WAT     H126216   4.278   5.783   3.977
 8558WAT     H226217   4.251   5.937   4.021
 8559WAT      O26218   5.478   6.809   5.312
 8559WAT     H126219   5.569   6.770   5.299
 8559WAT     H226220   5.486   6.905   5.336
 8560WAT      O26221   4.788   6.933   5.064
 8560WAT     H126222   4.708   6.910   5.119
 8560WAT     H226223   4.871   6.907   5.113
 8561WAT      O26224   4.835   6.781   4.824
 8561WAT     H126225   4.795   6.825   4.905
 8561WAT     H226226   4.794   6.818   4.741
 8562WAT      O26227   5.362   6.685   4.803
 8562WAT     H126228   5.367   6.766   4.862
 8562WAT     H226229   5.276   6.687   4.752
 8563WAT      O26230   4.639   5.675   5.126
 8563WAT     H126231   4.664   5.655   5.031
 8563WAT     H226232   4.711   5.731   5.168
 8564WAT      O26233   4.704   6.702   5.443
 8564WAT     H126234   4.605   6.708   5.453
 8564WAT     H226235   4.727   6.622   5.387
 8565WAT      O26236   4.429   6.636   4.092
 8565WAT     H126237   4.415   6.643   4.191
 8565WAT     H226238   4.513   6.585   4.074
 8566WAT      O26239   4.134   6.399   4.975
 8566WAT     H126240   4.220   6.411   5.025
 8566WAT     H226241   4.092   6.312   5.002
 8567WAT      O26242   4.998   5.972   4.986
 8567WAT     H126243   5.019   6.046   5.050
 8567WAT     H226244   4.909   5.989   4.943
 8568WAT      O26245   4.091   6.686   4.225
 8568WAT     H126246   4.084   6.769   4.169
 8568WAT     H226247   4.095   6.606   4.165
 8569WAT      O26248   4.290   6.123   4.589
 8569WAT     H126249   4.302   6.189   4.515
 8569WAT     H226250   4.336   6.157   4.672
 8570WAT      O26251   5.306   6.225   4.196
 8570WAT     H126252   5.275   6.286   4.269
 8570WAT     H226253   5.356   6.277   4.127
 8571WAT      O26254   4.126   6.337   5.322
 8571WAT     H126255   4.194   6.392   5.275
 8571WAT     H226256   4.166   6.249   5.349
 8572WAT      O26257   5.311   6.365   5.394
 8572WAT     H126258   5.219   6.403   5.389
 8572WAT     H226259   5.371   6.412   5.329
 8573WAT      O26260   4.737   5.691   5.494
 8573WAT     H126261   4.743   5.776   5.442
 8573WAT     H226262   4.769   5.615   5.437
 8574WAT      O26263   4.228   5.636   5.464
 8574WAT     H126264   4.186   5.579   5.394
 8574WAT     H226265   4.162   5.705   5.496
 8575WAT      O26266   4.297   6.456   4.753
 8575WAT     H126267   4.341   6.545   4.744
 8575WAT     H226268   4.234   6.456   4.830
 8576WAT      O26269   5.084   6.448   4.769
 8576WAT     H126270   5.009   6.448   4.703
 8576WAT     H226271   5.121   6.356   4.778
 8577WAT      O26272   4.933   6.111   3.999
 8577WAT     H126273   4.946   6.027   4.053
 8577WAT     H226274   4.904   6.185   4.059
 8578WAT      O26275   4.031   5.799   4.955
 8578WAT     H126276   4.008   5.836   5.045
 8578WAT     H226277   4.001   5.704   4.949
 8579WAT      O26278   3.761   6.896   5.006
 8579WAT     H126279   3.814   6.847   5.074
 8579WAT     H226280   3.783   6.994   5.011
 8580WAT      O26281   4.456   6.220   4.788
 8580WAT     H126282   4.515   6.194   4.712
 8580WAT     H226283   4.428   6.316   4.777
 8581WAT      O26284   5.452   6.521   5.578
 8581WAT     H126285   5.406   6.514   5.489
 8581WAT     H226286   5.390   6.565   5.644
 8582WAT      O26287   4.031   5.649   4.342
 8582WAT     H126288   4.020   5.743   4.375
 8582WAT     H226289   4.026   5.586   4.419
 8583WAT      O26290   5.346   5.953   4.098
 8583WAT     H126291   5.348   5.877   4.162
 8583WAT     H226292   5.298   6.030   4.138
 8584WAT      O26293   4.747   6.352   4.690
 8584WAT     H126294   4.762   6.373   4.786
 8584WAT     H226295   4.717   6.257   4.681
 8585WAT      O26296   5.583   7.104   5.329
 8585WAT     H126297   5.597   7.131   5.234
 8585WAT     H226298   5.666   7.126   5.382
 8586WAT      O26299   4.074   6.484   5.528
 8586WAT     H126300   4.150   6.528   5.576
 8586WAT     H226301   4.109   6.437   5.446
 8587WAT      O26302   5.264   5.860   3.849
 8587WAT     H126303   5.203   5.785   3.872
 8587WAT     H226304   5.286   5.912   3.932
 8588WAT      O26305   5.027   6.424   3.766
 8588WAT     H126306   5.061   6.331   3.781
 8588WAT     H226307   5.045   6.451   3.671
 8589WAT      O26308   4.043   6.396   4.673
 8589WAT     H126309   4.136   6.432   4.678
 8589WAT     H226310   4.037   6.311   4.725
 8590WAT      O26311   4.063   6.095   4.730
 8590WAT     H126312   4.011   6.012   4.713
 8590WAT     H226313   4.140   6.100   4.666
 8591WAT      O26314   4.862   5.966   5.402
 8591WAT     H126315   4.817   6.029   5.466
 8591WAT     H226316   4.955   5.997   5.385
 8592WAT      O26317   4.884   5.793   5.201
 8592WAT     H126318   4.884   5.857   5.278
 8592WAT     H226319   4.912   5.841   5.118
 8593WAT      O26320   3.732   6.912   3.924
 8593WAT     H126321   3.639   6.933   3.893
 8593WAT     H226322   3.742   6.813   3.937
 8594WAT      O26323   4.726   6.382   4.962
 8594WAT     H126324   4.767   6.350   5.048
 8594WAT     H226325   4.630   6.355   4.959
 8595WAT      O26326   3.764   6.130   4.838
 8595WAT     H126327   3.849   6.097   4.797
 8595WAT     H226328   3.777   6.145   4.936
 8596WAT      O26329   3.913   6.106   5.446
 8596WAT     H126330   3.972   6.066   5.376
 8596WAT     H226331   3.855   6.177   5.405
 8597WAT      O26332   5.093   6.536   5.384
 8597WAT     H126333   5.132   6.625   5.404
 8597WAT     H226334   5.103   6.516   5.287
 8598WAT      O26335   4.539   6.158   4.049
 8598WAT     H126336   4.546   6.069   4.003
 8598WAT     H226337   4.445   6.192   4.041
 8599WAT      O26338   5.381   6.190   4.930
 8599WAT     H126339   5.343   6.121   4.992
 8599WAT     H226340   5.463   6.154   4.886
 8600WAT      O26341   4.395   6.050   4.993
 8600WAT     H126342   4.361   5.961   4.963
 8600WAT     H226343   4.421   6.104   4.913
 8601WAT      O26344   4.197   6.086   3.915
 8601WAT     H126345   4.258   6.166   3.919
 8601WAT     H226346   4.102   6.117   3.922
 8602WAT      O26347   3.883   6.723   5.190
 8602WAT     H126348   3.905   6.662   5.266
 8602WAT     H226349   3.893   6.674   5.104
 8603WAT      O26350   5.071   6.645   4.958
 8603WAT     H126351   5.095   6.582   4.884
 8603WAT     H226352   4.981   6.685   4.940
 8604WAT      O26353   5.026   6.441   4.033
 8604WAT     H126354   4.940   6.410   4.075
 8604WAT     H226355   5.022   6.427   3.934
 8605WAT      O26356   3.807   6.844   4.746
 8605WAT     H126357   3.802   6.843   4.846
 8605WAT     H226358   3.724   6.803   4.708
 8606WAT      O26359   5.450   5.721   4.247
 8606WAT     H126360   5.523   5.704   4.180
 8606WAT     H226361   5.419   5.634   4.285
 8607WAT      O26362   5.004   6.513   4.396
 8607WAT     H126363   5.064   6.432   4.398
 8607WAT     H226364   5.044   6.582   4.336
 8608WAT      O26365   4.554   6.859   5.146
 8608WAT     H126366   4.549   6.892   5.241
 8608WAT     H226367   4.468   6.878   5.100
 8609WAT      O26368   5.565   5.761   4.687
 8609WAT     H126369   5.604   5.676   4.651
 8609WAT     H226370   5.467   5.763   4.668
 8610WAT      O26371   3.987   5.912   4.444
 8610WAT     H126372   3.908   5.963   4.410
 8610WAT     H226373   3.978   5.897   4.542
 8611WAT      O26374   4.918   7.198   3.755
 8611WAT     H126375   4.924   7.105   3.792
 8611WAT     H226376   4.859   7.198   3.675
 8612WAT      O26377   4.546   6.588   5.096
 8612WAT     H126378   4.586   6.587   5.004
 8612WAT     H226379   4.556   6.680   5.136
 8613WAT      O26380   4.640   6.496   4.015
 8613WAT     H126381   4.703   6.534   3.947
 8613WAT     H226382   4.680   6.413   4.054
 8614WAT      O26383   4.096   6.874   5.214
 8614WAT     H126384   4.083   6.967   5.180
 8614WAT     H226385   4.012   6.822   5.201
 8615WAT      O26386   5.338   6.878   5.013
 8615WAT     H126387   5.398   6.881   5.093
 8615WAT     H226388   5.263   6.942   5.026
 8616WAT      O26389   4.763   6.684   4.420
 8616WAT     H126390   4.693   6.637   4.474
 8616WAT     H226391   4.822   6.616   4.377
 8617WAT      O26392   4.738   5.822   4.695
 8617WAT     H126393   4.730   5.786   4.602
 8617WAT     H226394   4.736   5.746   4.760
 8618WAT      O26395   5.433   5.971   5.105
 8618WAT     H126396   5.506   6.040   5.109
 8618WAT     H226397   5.461   5.896   5.046
 8619WAT      O26398   3.829   6.599   5.450
 8619WAT     H126399   3.752   6.566   5.504
 8619WAT     H226400   3.914   6.569   5.492
 8620WAT      O26401   4.396   5.789   5.213
 8620WAT     H126402   4.486   5.773   5.173
 8620WAT     H226403   4.404   5.794   5.312
 8621WAT      O26404   3.799   5.931   3.757
 8621WAT     H126405   3.707   5.903   3.728
 8621WAT     H226406   3.830   6.008   3.701
 8622WAT      O26407   5.164   6.442   5.122
 8622WAT     H126408   5.107   6.494   5.059
 8622WAT     H226409   5.260   6.454   5.098
 8623WAT      O26410   3.796   5.752   4.042
 8623WAT     H126411   3.779   5.835   3.988
 8623WAT     H226412   3.886   5.715   4.020
 8624WAT      O26413   4.337   6.428   5.155
 8624WAT     H126414   4.393   6.509   5.138
 8624WAT     H226415   4.396   6.348   5.158
 8625WAT      O26416   4.440   6.151   5.432
 8625WAT     H126417   4.459   6.216   5.506
 8625WAT     H226418   4.500   6.071   5.441
 8626WAT      O26419   5.174   6.806   5.357
 8626WAT     H126420   5.165   6.796   5.456
 8626WAT     H226421   5.270   6.799   5.331
 8627WAT      O26422   5.398   6.469   4.978
 8627WAT     H126423   5.371   6.380   4.941
 8627WAT     H226424   5.399   6.537   4.905
 8628WAT      O26425   4.949   5.911   4.173
 8628WAT     H126426   5.014   5.837   4.162
 8628WAT     H226427   4.969   5.961   4.257
 8629WAT      O26428   4.318   6.331   4.376
 8629WAT     H126429   4.368   6.416   4.357
 8629WAT     H226430   4.230   6.333   4.328
 8630WAT      O26431   5.501   5.928   5.366
 8630WAT     H126432   5.484   5.959   5.272
 8630WAT     H226433   5.417   5.891   5.404
 8631WAT      O26434   5.454   6.520   5.241
 8631WAT     H126435   5.492   6.611   5.256
 8631WAT     H226436   5.446   6.503   5.142
 8632WAT      O26437   4.583   6.542   4.585
 8632WAT     H126438   4.637   6.473   4.633
 8632WAT     H226439   4.551   6.611   4.651
 8633WAT      O26440   4.807   6.570   3.811
 8633WAT     H126441   4.784   6.623   3.729
 8633WAT     H226442   4.888   6.514   3.792
 8634WAT      O26443   3.945   6.900   5.568
 8634WAT     H126444   3.880   6.827   5.547
 8634WAT     H226445   3.949   6.914   5.666
 8635WAT      O26446   3.803   6.826   4.377
 8635WAT     H126447   3.802   6.779   4.465
 8635WAT     H226448   3.885   6.798   4.326
 8636WAT      O26449   4.396   6.977   5.348
 8636WAT     H126450   4.318   6.927   5.386
 8636WAT     H226451   4.393   7.072   5.379
 8637WAT      O26452   5.548   5.778   4.951
 8637WAT     H126453   5.544   5.688   4.995
 8637WAT     H226454   5.551   5.767   4.852
 8638WAT      O26455   4.152   6.010   4.244
 8638WAT     H126456   4.182   5.938   4.182
 8638WAT     H226457   4.113   5.970   4.327
 8639WAT      O26458   5.429   7.073   4.828
 8639WAT     H126459   5.336   7.048   4.801
 8639WAT     H226460   5.455   7.023   4.910
 8640WAT      O26461   4.041   6.133   5.004
 8640WAT     H126462   4.079   6.074   5.076
 8640WAT     H226463   4.081   6.107   4.916
 8641WAT      O26464   5.148   5.800   4.836
 8641WAT     H126465   5.200   5.735   4.891
 8641WAT     H226466   5.099   5.863   4.897
 8642WAT      O26467   4.725   5.620   4.878
 8642WAT     H126468   4.662   5.548   4.847
 8642WAT     H226469   4.818   5.584   4.878
 8643WAT      O26470   4.494   6.916   4.025
 8643WAT     H126471   4.448   6.829   4.042
 8643WAT     H226472   4.585   6.913   4.066
 8644WAT      O26473   5.076   5.638   3.892
 8644WAT     H126474   5.111   5.597   3.808
 8644WAT     H226475   4.986   5.600   3.912
 8645WAT      O26476   5.024   6.039   4.415
 8645WAT     H126477   4.965   6.119   4.419
 8645WAT     H226478   5.039   6.004   4.508
 8646WAT      O26479   5.317   5.807   4.606
 8646WAT     H126480   5.233   5.806   4.660
 8646WAT     H226481   5.319   5.890   4.550
 8647WAT      O26482   3.763   6.663   4.024
 8647WAT     H126483   3.862   6.652   4.015
 8647WAT     H226484   3.723   6.577   4.056
 8648WAT      O26485   3.954   6.214   5.699
 8648WAT     H126486   3.861   6.212   5.736
 8648WAT     H226487   3.955   6.175   5.607
 8649WAT      O26488   3.949   5.861   6.582
 8649WAT     H126489   3.984   5.844   6.674
 8649WAT     H226490   3.861   5.816   6.570
 8650WAT      O26491   3.743   5.954   6.233
 8650WAT     H126492   3.661   5.997   6.272
 8650WAT     H226493   3.715   5.881   6.170
 8651WAT      O26494   4.293   6.861   6.751
 8651WAT     H126495   4.200   6.854   6.714
 8651WAT     H226496   4.304   6.950   6.795
 8652WAT      O26497   5.279   7.097   6.289
 8652WAT     H126498   5.222   7.081   6.370
 8652WAT     H226499   5.220   7.107   6.209
 8653WAT      O26500   4.859   6.289   6.303
 8653WAT     H126501   4.916   6.367   6.278
 8653WAT     H226502   4.799   6.315   6.379
 8654WAT      O26503   5.479   6.193   5.817
 8654WAT     H126504   5.467   6.180   5.718
 8654WAT     H226505   5.449   6.112   5.866
 8655WAT      O26506   4.492   6.730   6.609
 8655WAT     H126507   4.414   6.747   6.669
 8655WAT     H226508   4.526   6.817   6.573
 8656WAT      O26509   4.409   6.598   6.251
 8656WAT     H126510   4.478   6.582   6.321
 8656WAT     H226511   4.336   6.655   6.289
 8657WAT      O26512   4.059   7.021   6.647
 8657WAT     H126513   3.981   6.990   6.594
 8657WAT     H226514   4.117   7.079   6.590
 8658WAT      O26515   5.327   6.033   6.323
 8658WAT     H126516   5.253   6.079   6.273
 8658WAT     H226517   5.378   6.101   6.376
 8659WAT      O26518   3.964   6.677   6.472
 8659WAT     H126519   3.978   6.593   6.524
 8659WAT     H226520   3.909   6.741   6.527
 8660WAT      O26521   4.330   6.550   5.709
 8660WAT     H126522   4.337   6.634   5.655
 8660WAT     H226523   4.376   6.563   5.797
 8661WAT      O26524   3.846   6.229   6.149
 8661WAT     H126525   3.801   6.141   6.166
 8661WAT     H226526   3.845   6.283   6.233
 8662WAT      O26527   5.413   6.508   6.198
 8662WAT     H126528   5.508   6.479   6.206
 8662WAT     H226529   5.405   6.573   6.123
 8663WAT      O26530   5.365   6.694   6.018
 8663WAT     H126531   5.451   6.696   5.966
 8663WAT     H226532   5.379   6.741   6.106
 8664WAT      O26533   4.533   5.590   6.088
 8664WAT     H126534   4.573   5.681   6.079
 8664WAT     H226535   4.433   5.598   6.094
 8665WAT      O26536   3.921   6.562   6.850
 8665WAT     H126537   4.010   6.517   6.836
 8665WAT     H226538   3.848   6.497   6.831
 8666WAT      O26539   5.249   6.585   5.776
 8666WAT     H126540   5.186   6.509   5.789
 8666WAT     H226541   5.297   6.603   5.862
 8667WAT      O26542   5.190   7.003   6.539
 8667WAT     H126543   5.131   7.009   6.619
 8667WAT     H226544   5.175   6.915   6.493
 8668WAT      O26545   4.322   6.315   5.856
 8668WAT     H126546   4.346   6.384   5.788
 8668WAT     H226547   4.244   6.348   5.910
 8669WAT      O26548   5.005   5.931   6.530
 8669WAT     H126549   4.919   5.881   6.517
 8669WAT     H226550   5.067   5.877   6.586
 8670WAT      O26551   4.531   6.191   7.051
 8670WAT     H126552   4.484   6.188   7.140
 8670WAT     H226553   4.480   6.136   6.985
 8671WAT      O26554   4.715   5.996   6.828
 8671WAT     H126555   4.638   6.030   6.882
 8671WAT     H226556   4.681   5.945   6.749
 8672WAT      O26557   4.765   6.287   6.015
 8672WAT     H126558   4.791   6.283   6.111
 8672WAT     H226559   4.680   6.236   6.001
 8673WAT      O26560   3.800   6.397   6.375
 8673WAT     H126561   3.899   6.385   6.384
 8673WAT     H226562   3.776   6.492   6.396
 8674WAT      O26563   4.589   5.934   5.781
 8674WAT     H126564   4.648   5.997   5.732
 8674WAT     H226565   4.608   5.840   5.752
 8675WAT      O26566   5.086   6.730   6.131
 8675WAT     H126567   5.169   6.701   6.083
 8675WAT     H226568   5.037   6.797   6.075
 8676WAT      O26569   4.274   5.782   6.471
 8676WAT     H126570   4.269   5.777   6.571
 8676WAT     H226571   4.276   5.878   6.442
 8677WAT      O26572   5.519   6.652   6.459
 8677WAT     H126573   5.457   6.637   6.383
 8677WAT     H226574   5.467   6.663   6.544
 8678WAT      O26575   4.045   6.529   5.828
 8678WAT     H126576   4.127   6.568   5.786
 8678WAT     H226577   4.018   6.447   5.779
 8679WAT      O26578   5.182   6.321   6.314
 8679WAT     H126579   5.177   6.256   6.389
 8679WAT     H226580   5.262   6.380   6.327
 8680WAT      O26581   5.356   6.963   5.667
 8680WAT     H126582   5.324   7.057   5.657
 8680WAT     H226583   5.280   6.900   5.655
 8681WAT      O26584   5.124   5.693   6.012
 8681WAT     H126585   5.100   5.656   5.922
 8681WAT     H226586   5.223   5.709   6.016
 8682WAT      O26587   4.106   6.286   6.066
 8682WAT     H126588   4.151   6.196   6.063
 8682WAT     H226589   4.012   6.275   6.099
 8683WAT      O26590   4.338   5.708   5.703
 8683WAT     H126591   4.436   5.686   5.710
 8683WAT     H226592   4.307   5.691   5.610
 8684WAT      O26593   4.646   6.089   6.485
 8684WAT     H126594   4.621   6.080   6.389
 8684WAT     H226595   4.694   6.007   6.516
 8685WAT      O26596   4.263   5.650   6.098
 8685WAT     H126597   4.182   5.651   6.156
 8685WAT     H226598   4.266   5.733   6.043
 8686WAT      O26599   5.158   6.774   5.627
 8686WAT     H126600   5.190   6.698   5.684
 8686WAT     H226601   5.066   6.801   5.657
 8687WAT      O26602   4.021   5.621   5.757
 8687WAT     H126603   4.070   5.705   5.736
 8687WAT     H226604   4.083   5.556   5.802
 8688WAT      O26605   4.659   5.822   6.066
 8688WAT     H126606   4.611   5.863   5.988
 8688WAT     H226607   4.758   5.820   6.047
 8689WAT      O26608   4.951   7.156   6.379
 8689WAT     H126609   4.972   7.230   6.314
 8689WAT     H226610   5.019   7.156   6.452
 8690WAT      O26611   4.183   6.738   6.327
 8690WAT     H126612   4.112   6.711   6.392
 8690WAT     H226613   4.157   6.710   6.234
 8691WAT      O26614   4.756   6.135   5.602
 8691WAT     H126615   4.715   6.217   5.563
 8691WAT     H226616   4.820   6.161   5.675
 8692WAT      O26617   4.285   5.808   6.733
 8692WAT     H126618   4.323   5.724   6.770
 8692WAT     H226619   4.197   5.827   6.777
 8693WAT      O26620   4.590   6.040   6.228
 8693WAT     H126621   4.558   6.112   6.166
 8693WAT     H226622   4.614   5.959   6.175
 8694WAT      O26623   4.741   5.625   6.339
 8694WAT     H126624   4.669   5.630   6.270
 8694WAT     H226625   4.717   5.556   6.408
 8695WAT      O26626   5.153   6.759   6.453
 8695WAT     H126627   5.098   6.675   6.446
 8695WAT     H226628   5.179   6.788   6.361
 8696WAT      O26629   5.190   6.176   6.578
 8696WAT     H126630   5.160   6.081   6.585
 8696WAT     H226631   5.263   6.192   6.644
 8697WAT      O26632   5.581   6.419   5.963
 8697WAT     H126633   5.623   6.355   6.027
 8697WAT     H226634   5.543   6.368   5.885
 8698WAT      O26635   5.388   6.866   6.243
 8698WAT     H126636   5.487   6.874   6.257
 8698WAT     H226637   5.343   6.950   6.274
 8699WAT      O26638   5.114   6.161   5.664
 8699WAT     H126639   5.060   6.140   5.745
 8699WAT     H226640   5.205   6.120   5.673
 8700WAT      O26641   4.251   5.842   5.914
 8700WAT     H126642   4.278   5.783   5.839
 8700WAT     H226643   4.251   5.937   5.883
 8701WAT      O26644   5.478   6.809   7.174
 8701WAT     H126645   5.569   6.770   7.161
 8701WAT     H226646   5.486   6.905   7.198
 8702WAT      O26647   4.788   6.933   6.926
 8702WAT     H126648   4.708   6.910   6.981
 8702WAT     H226649   4.871   6.907   6.975
 8703WAT      O26650   4.835   6.781   6.686
 8703WAT     H126651   4.795   6.825   6.767
 8703WAT     H226652   4.794   6.818   6.603
 8704WAT      O26653   5.362   6.685   6.665
 8704WAT     H126654   5.367   6.766   6.724
 8704WAT     H226655   5.276   6.687   6.614
 8705WAT      O26656   4.429   6.636   5.954
 8705WAT     H126657   4.415   6.643   6.053
 8705WAT     H226658   4.513   6.585   5.936
 8706WAT      O26659   4.134   6.399   6.837
 8706WAT     H126660   4.220   6.411   6.887
 8706WAT     H226661   4.092   6.312   6.864
 8707WAT      O26662   4.998   5.972   6.848
 8707WAT     H126663   5.019   6.046   6.912
 8707WAT     H226664   4.909   5.989   6.805
 8708WAT      O26665   4.091   6.686   6.087
 8708WAT     H126666   4.084   6.769   6.031
 8708WAT     H226667   4.095   6.606   6.027
 8709WAT      O26668   4.290   6.123   6.451
 8709WAT     H126669   4.302   6.189   6.377
 8709WAT     H226670   4.336   6.157   6.534
 8710WAT      O26671   5.306   6.225   6.058
 8710WAT     H126672   5.275   6.286   6.131
 8710WAT     H226673   5.356   6.277   5.989
 8711WAT      O26674   4.297   6.456   6.615
 8711WAT     H126675   4.341   6.545   6.606
 8711WAT     H226676   4.234   6.456   6.692
 8712WAT      O26677   5.084   6.448   6.631
 8712WAT     H126678   5.009   6.448   6.565
 8712WAT     H226679   5.121   6.356   6.640
 8713WAT      O26680   4.933   6.111   5.861
 8713WAT     H126681   4.946   6.027   5.915
 8713WAT     H226682   4.904   6.185   5.921
 8714WAT      O26683   4.031   5.799   6.817
 8714WAT     H126684   4.008   5.836   6.907
 8714WAT     H226685   4.001   5.704   6.811
 8715WAT      O26686   3.761   6.896   6.868
 8715WAT     H126687   3.814   6.847   6.936
 8715WAT     H226688   3.783   6.994   6.873
 8716WAT      O26689   4.456   6.220   6.650
 8716WAT     H126690   4.515   6.194   6.574
 8716WAT     H226691   4.428   6.316   6.639
 8717WAT      O26692   4.031   5.649   6.204
 8717WAT     H126693   4.020   5.743   6.237
 8717WAT     H226694   4.026   5.586   6.281
 8718WAT      O26695   5.346   5.953   5.960
 8718WAT     H126696   5.348   5.877   6.024
 8718WAT     H226697   5.298   6.030   6.000
 8719WAT      O26698   4.747   6.352   6.552
 8719WAT     H126699   4.762   6.373   6.648
 8719WAT     H226700   4.717   6.257   6.543
 8720WAT      O26701   5.264   5.860   5.711
 8720WAT     H126702   5.203   5.785   5.734
 8720WAT     H226703   5.286   5.912   5.794
 8721WAT      O26704   5.027   6.424   5.628
 8721WAT     H126705   5.061   6.331   5.643
 8721WAT     H226706   5.045   6.451   5.533
 8722WAT      O26707   4.043   6.396   6.535
 8722WAT     H126708   4.136   6.432   6.540
 8722WAT     H226709   4.037   6.311   6.587
 8723WAT      O26710   4.063   6.095   6.592
 8723WAT     H126711   4.011   6.012   6.575
 8723WAT     H226712   4.140   6.100   6.528
 8724WAT      O26713   4.884   5.793   7.063
 8724WAT     H126714   4.884   5.857   7.140
 8724WAT     H226715   4.912   5.841   6.980
 8725WAT      O26716   3.732   6.912   5.786
 8725WAT     H126717   3.639   6.933   5.755
 8725WAT     H226718   3.742   6.813   5.799
 8726WAT      O26719   4.726   6.382   6.824
 8726WAT     H126720   4.767   6.350   6.910
 8726WAT     H226721   4.630   6.355   6.821
 8727WAT      O26722   3.764   6.130   6.700
 8727WAT     H126723   3.849   6.097   6.659
 8727WAT     H226724   3.777   6.145   6.798
 8728WAT      O26725   4.539   6.158   5.911
 8728WAT     H126726   4.546   6.069   5.865
 8728WAT     H226727   4.445   6.192   5.903
 8729WAT      O26728   5.381   6.190   6.792
 8729WAT     H126729   5.343   6.121   6.854
 8729WAT     H226730   5.463   6.154   6.748
 8730WAT      O26731   4.395   6.050   6.855
 8730WAT     H126732   4.361   5.961   6.825
 8730WAT     H226733   4.421   6.104   6.775
 8731WAT      O26734   4.197   6.086   5.777
 8731WAT     H126735   4.258   6.166   5.781
 8731WAT     H226736   4.102   6.117   5.784
 8732WAT      O26737   3.883   6.723   7.052
 8732WAT     H126738   3.905   6.662   7.128
 8732WAT     H226739   3.893   6.674   6.966
 8733WAT      O26740   5.071   6.645   6.820
 8733WAT     H126741   5.095   6.582   6.746
 8733WAT     H226742   4.981   6.685   6.802
 8734WAT      O26743   5.026   6.441   5.895
 8734WAT     H126744   4.940   6.410   5.937
 8734WAT     H226745   5.022   6.427   5.796
 8735WAT      O26746   3.807   6.844   6.608
 8735WAT     H126747   3.802   6.843   6.708
 8735WAT     H226748   3.724   6.803   6.570
 8736WAT      O26749   5.450   5.721   6.109
 8736WAT     H126750   5.523   5.704   6.042
 8736WAT     H226751   5.419   5.634   6.147
 8737WAT      O26752   5.004   6.513   6.258
 8737WAT     H126753   5.064   6.432   6.260
 8737WAT     H226754   5.044   6.582   6.198
 8738WAT      O26755   4.554   6.859   7.008
 8738WAT     H126756   4.549   6.892   7.103
 8738WAT     H226757   4.468   6.878   6.962
 8739WAT      O26758   5.565   5.761   6.549
 8739WAT     H126759   5.604   5.676   6.513
 8739WAT     H226760   5.467   5.763   6.530
 8740WAT      O26761   3.987   5.912   6.306
 8740WAT     H126762   3.908   5.963   6.272
 8740WAT     H226763   3.978   5.897   6.404
 8741WAT      O26764   4.918   7.198   5.617
 8741WAT     H126765   4.924   7.105   5.654
 8741WAT     H226766   4.859   7.198   5.537
 8742WAT      O26767   4.546   6.588   6.958
 8742WAT     H126768   4.586   6.587   6.866
 8742WAT     H226769   4.556   6.680   6.998
 8743WAT      O26770   4.640   6.496   5.877
 8743WAT     H126771   4.703   6.534   5.809
 8743WAT     H226772   4.680   6.413   5.916
 8744WAT      O26773   4.096   6.874   7.076
 8744WAT     H126774   4.083   6.967   7.042
 8744WAT     H226775   4.012   6.822   7.063
 8745WAT      O26776   5.338   6.878   6.875
 8745WAT     H126777   5.398   6.881   6.955
 8745WAT     H226778   5.263   6.942   6.888
 8746WAT      O26779   4.763   6.684   6.282
 8746WAT     H126780   4.693   6.637   6.336
 8746WAT     H226781   4.822   6.616   6.239
 8747WAT      O26782   4.738   5.822   6.557
 8747WAT     H126783   4.730   5.786   6.464
 8747WAT     H226784   4.736   5.746   6.622
 8748WAT      O26785   5.433   5.971   6.967
 8748WAT     H126786   5.506   6.040   6.971
 8748WAT     H226787   5.461   5.896   6.908
 8749WAT      O26788   4.396   5.789   7.075
 8749WAT     H126789   4.486   5.773   7.035
 8749WAT     H226790   4.404   5.794   7.174
 8750WAT      O26791   3.799   5.931   5.619
 8750WAT     H126792   3.707   5.903   5.590
 8750WAT     H226793   3.830   6.008   5.563
 8751WAT      O26794   3.796   5.752   5.904
 8751WAT     H126795   3.779   5.835   5.850
 8751WAT     H226796   3.886   5.715   5.882
 8752WAT      O26797   5.174   6.806   7.219
 8752WAT     H126798   5.165   6.796   7.318
 8752WAT     H226799   5.270   6.799   7.193
 8753WAT      O26800   5.398   6.469   6.840
 8753WAT     H126801   5.371   6.380   6.803
 8753WAT     H226802   5.399   6.537   6.767
 8754WAT      O26803   4.949   5.911   6.035
 8754WAT     H126804   5.014   5.837   6.024
 8754WAT     H226805   4.969   5.961   6.119
 8755WAT      O26806   4.318   6.331   6.238
 8755WAT     H126807   4.368   6.416   6.219
 8755WAT     H226808   4.230   6.333   6.190
 8756WAT      O26809   5.454   6.520   7.103
 8756WAT     H126810   5.492   6.611   7.118
 8756WAT     H226811   5.446   6.503   7.004
 8757WAT      O26812   4.583   6.542   6.447
 8757WAT     H126813   4.637   6.473   6.495
 8757WAT     H226814   4.551   6.611   6.513
 8758WAT      O26815   4.807   6.570   5.673
 8758WAT     H126816   4.784   6.623   5.591
 8758WAT     H226817   4.888   6.514   5.654
 8759WAT      O26818   3.803   6.826   6.239
 8759WAT     H126819   3.802   6.779   6.327
 8759WAT     H226820   3.885   6.798   6.188
 8760WAT      O26821   5.548   5.778   6.813
 8760WAT     H126822   5.544   5.688   6.857
 8760WAT     H226823   5.551   5.767   6.714
 8761WAT      O26824   4.152   6.010   6.106
 8761WAT     H126825   4.182   5.938   6.044
 8761WAT     H226826   4.113   5.970   6.189
 8762WAT      O26827   5.429   7.073   6.690
 8762WAT     H126828   5.336   7.048   6.663
 8762WAT     H226829   5.455   7.023   6.772
 8763WAT      O26830   4.041   6.133   6.866
 8763WAT     H126831   4.079   6.074   6.938
 8763WAT     H226832   4.081   6.107   6.778
 8764WAT      O26833   5.148   5.800   6.698
 8764WAT     H126834   5.200   5.735   6.753
 8764WAT     H226835   5.099   5.863   6.759
 8765WAT      O26836   4.725   5.620   6.740
 8765WAT     H126837   4.662   5.548   6.709
 8765WAT     H226838   4.818   5.584   6.740
 8766WAT      O26839   4.494   6.916   5.887
 8766WAT     H126840   4.448   6.829   5.904
 8766WAT     H226841   4.585   6.913   5.928
 8767WAT      O26842   5.076   5.638   5.754
 8767WAT     H126843   5.111   5.597   5.670
 8767WAT     H226844   4.986   5.600   5.774
 8768WAT      O26845   5.024   6.039   6.277
 8768WAT     H126846   4.965   6.119   6.281
 8768WAT     H226847   5.039   6.004   6.370
 8769WAT      O26848   5.317   5.807   6.468
 8769WAT     H126849   5.233   5.806   6.522
 8769WAT     H226850   5.319   5.890   6.412
 8770WAT      O26851   3.763   6.663   5.886
 8770WAT     H126852   3.862   6.652   5.877
 8770WAT     H226853   3.723   6.577   5.918
 8771WAT      O26854   5.816   0.628   0.113
 8771WAT     H126855   5.723   0.626   0.150
 8771WAT     H226856   5.817   0.589   0.021
 8772WAT      O26857   5.811   0.275   0.996
 8772WAT     H126858   5.846   0.258   1.088
 8772WAT     H226859   5.723   0.230   0.984
 8773WAT      O26860   5.605   0.368   0.647
 8773WAT     H126861   5.523   0.411   0.686
 8773WAT     H226862   5.577   0.295   0.584
 8774WAT      O26863   6.155   1.275   1.165
 8774WAT     H126864   6.062   1.268   1.128
 8774WAT     H226865   6.166   1.364   1.209
 8775WAT      O26866   7.141   1.511   0.703
 8775WAT     H126867   7.084   1.495   0.784
 8775WAT     H226868   7.082   1.521   0.623
 8776WAT      O26869   6.721   0.703   0.717
 8776WAT     H126870   6.778   0.781   0.692
 8776WAT     H226871   6.661   0.729   0.793
 8777WAT      O26872   6.354   1.144   1.023
 8777WAT     H126873   6.276   1.161   1.083
 8777WAT     H226874   6.388   1.231   0.987
 8778WAT      O26875   6.436   0.798   1.823
 8778WAT     H126876   6.432   0.874   1.888
 8778WAT     H226877   6.458   0.834   1.732
 8779WAT      O26878   6.271   1.012   0.665
 8779WAT     H126879   6.340   0.996   0.735
 8779WAT     H226880   6.198   1.069   0.703
 8780WAT      O26881   6.272   1.161   1.803
 8780WAT     H126882   6.332   1.240   1.817
 8780WAT     H226883   6.186   1.192   1.762
 8781WAT      O26884   5.921   1.435   1.061
 8781WAT     H126885   5.843   1.404   1.008
 8781WAT     H226886   5.979   1.493   1.004
 8782WAT      O26887   6.024   0.392   1.499
 8782WAT     H126888   6.106   0.336   1.508
 8782WAT     H226889   5.943   0.334   1.503
 8783WAT      O26890   5.817   1.713   0.483
 8783WAT     H126891   5.851   1.790   0.537
 8783WAT     H226892   5.861   1.713   0.393
 8784WAT      O26893   6.713   1.341   1.690
 8784WAT     H126894   6.760   1.341   1.778
 8784WAT     H226895   6.665   1.254   1.679
 8785WAT      O26896   5.816   1.434   0.538
 8785WAT     H126897   5.790   1.530   0.538
 8785WAT     H226898   5.745   1.380   0.583
 8786WAT      O26899   5.826   1.091   0.886
 8786WAT     H126900   5.840   1.007   0.938
 8786WAT     H226901   5.771   1.155   0.941
 8787WAT      O26902   6.206   1.786   1.439
 8787WAT     H126903   6.114   1.769   1.474
 8787WAT     H226904   6.234   1.878   1.465
 8788WAT      O26905   6.192   0.964   0.123
 8788WAT     H126906   6.199   1.048   0.069
 8788WAT     H226907   6.238   0.977   0.211
 8789WAT      O26908   5.708   0.643   0.563
 8789WAT     H126909   5.663   0.555   0.580
 8789WAT     H226910   5.707   0.697   0.647
 8790WAT      O26911   5.613   1.596   0.117
 8790WAT     H126912   5.594   1.500   0.138
 8790WAT     H226913   5.580   1.654   0.192
 8791WAT      O26914   5.699   0.737   1.597
 8791WAT     H126915   5.787   0.724   1.642
 8791WAT     H226916   5.686   0.834   1.575
 8792WAT      O26917   6.199   1.365   0.726
 8792WAT     H126918   6.150   1.278   0.735
 8792WAT     H226919   6.176   1.408   0.639
 8793WAT      O26920   6.879   1.228   1.423
 8793WAT     H126921   6.916   1.155   1.365
 8793WAT     H226922   6.931   1.233   1.508
 8794WAT      O26923   6.395   0.004   0.502
 8794WAT     H126924   6.435   0.095   0.493
 8794WAT     H226925   6.295   0.012   0.508
 8795WAT      O26926   5.783   0.976   1.264
 8795WAT     H126927   5.872   0.931   1.250
 8795WAT     H226928   5.710   0.911   1.245
 8796WAT      O26929   6.773   1.792   1.616
 8796WAT     H126930   6.797   1.852   1.540
 8796WAT     H226931   6.780   1.697   1.586
 8797WAT      O26932   5.903   0.251   1.801
 8797WAT     H126933   5.974   0.322   1.807
 8797WAT     H226934   5.815   0.290   1.829
 8798WAT      O26935   6.184   0.729   0.270
 8798WAT     H126936   6.208   0.798   0.202
 8798WAT     H226937   6.106   0.762   0.324
 8799WAT      O26938   6.867   0.345   0.944
 8799WAT     H126939   6.781   0.295   0.931
 8799WAT     H226940   6.929   0.291   1.000
 8800WAT      O26941   6.393   0.605   1.465
 8800WAT     H126942   6.346   0.602   1.554
 8800WAT     H226943   6.342   0.550   1.399
 8801WAT      O26944   6.980   0.469   1.674
 8801WAT     H126945   6.960   0.512   1.762
 8801WAT     H226946   7.058   0.407   1.683
 8802WAT      O26947   6.559   0.890   1.572
 8802WAT     H126948   6.605   0.806   1.543
 8802WAT     H226949   6.503   0.924   1.497
 8803WAT      O26950   6.577   0.410   1.242
 8803WAT     H126951   6.500   0.444   1.296
 8803WAT     H226952   6.543   0.359   1.163
 8804WAT      O26953   6.627   0.701   0.429
 8804WAT     H126954   6.653   0.697   0.525
 8804WAT     H226955   6.542   0.650   0.415
 8805WAT      O26956   5.662   0.811   0.789
 8805WAT     H126957   5.761   0.799   0.798
 8805WAT     H226958   5.638   0.906   0.810
 8806WAT      O26959   5.716   1.821   1.571
 8806WAT     H126960   5.706   1.806   1.670
 8806WAT     H226961   5.630   1.857   1.535
 8807WAT      O26962   6.451   0.348   0.195
 8807WAT     H126963   6.510   0.411   0.146
 8807WAT     H226964   6.470   0.254   0.166
 8808WAT      O26965   6.948   1.144   0.545
 8808WAT     H126966   7.031   1.115   0.497
 8808WAT     H226967   6.899   1.211   0.489
 8809WAT      O26968   6.136   0.196   0.885
 8809WAT     H126969   6.131   0.191   0.985
 8809WAT     H226970   6.138   0.292   0.856
 8810WAT      O26971   6.594   1.456   0.477
 8810WAT     H126972   6.548   1.528   0.425
 8810WAT     H226973   6.590   1.476   0.575
 8811WAT      O26974   5.937   1.801   0.853
 8811WAT     H126975   5.987   1.715   0.859
 8811WAT     H226976   6.002   1.878   0.850
 8812WAT      O26977   6.813   1.550   1.506
 8812WAT     H126978   6.819   1.473   1.570
 8812WAT     H226979   6.761   1.524   1.426
 8813WAT      O26980   5.907   0.943   0.242
 8813WAT     H126981   5.989   0.982   0.200
 8813WAT     H226982   5.880   0.861   0.193
 8814WAT      O26983   6.047   1.266   1.727
 8814WAT     H126984   5.997   1.267   1.641
 8814WAT     H226985   5.984   1.248   1.803
 8815WAT      O26986   6.697   1.776   0.237
 8815WAT     H126987   6.637   1.714   0.287
 8815WAT     H226988   6.728   1.732   0.152
 8816WAT      O26989   5.788   0.285   1.498
 8816WAT     H126990   5.708   0.345   1.485
 8816WAT     H226991   5.778   0.236   1.584
 8817WAT      O26992   7.218   1.377   0.081
 8817WAT     H126993   7.186   1.471   0.071
 8817WAT     H226994   7.142   1.314   0.069
 8818WAT      O26995   6.050   1.743   0.323
 8818WAT     H126996   6.083   1.782   0.409
 8818WAT     H226997   6.126   1.736   0.258
 8819WAT      O26998   5.835   1.785   1.241
 8819WAT     H126999   5.892   1.720   1.291
 8819WAT     H227000   5.819   1.752   1.148
 8820WAT      O27001   6.526   1.698   0.904
 8820WAT     H127002   6.606   1.641   0.925
 8820WAT     H227003   6.477   1.658   0.827
 8821WAT      O27004   5.968   0.700   0.480
 8821WAT     H127005   6.013   0.610   0.477
 8821WAT     H227006   5.874   0.689   0.513
 8822WAT      O27007   6.200   0.122   0.117
 8822WAT     H127008   6.298   0.100   0.124
 8822WAT     H227009   6.169   0.105   0.024
 8823WAT      O27010   6.367   0.264   1.749
 8823WAT     H127011   6.434   0.203   1.792
 8823WAT     H227012   6.294   0.283   1.814
 8824WAT      O27013   6.474   1.514   1.195
 8824WAT     H127014   6.451   1.489   1.101
 8824WAT     H227015   6.535   1.445   1.234
 8825WAT      O27016   6.389   1.402   0.924
 8825WAT     H127017   6.479   1.416   0.882
 8825WAT     H227018   6.318   1.404   0.853
 8826WAT      O27019   6.508   0.503   0.899
 8826WAT     H127020   6.483   0.494   0.803
 8826WAT     H227021   6.556   0.421   0.930
 8827WAT      O27022   6.125   0.064   0.512
 8827WAT     H127023   6.044   0.065   0.570
 8827WAT     H227024   6.128   0.147   0.457
 8828WAT      O27025   5.883   0.035   0.171
 8828WAT     H127026   5.932   0.119   0.150
 8828WAT     H227027   5.945  -0.030   0.216
 8829WAT      O27028   6.521   0.236   0.480
 8829WAT     H127029   6.473   0.277   0.402
 8829WAT     H227030   6.620   0.234   0.461
 8830WAT      O27031   6.662   0.683   1.464
 8830WAT     H127032   6.582   0.622   1.467
 8830WAT     H227033   6.743   0.630   1.440
 8831WAT      O27034   6.813   1.570   0.793
 8831WAT     H127035   6.834   1.644   0.728
 8831WAT     H227036   6.881   1.570   0.866
 8832WAT      O27037   6.045   1.152   0.741
 8832WAT     H127038   5.974   1.125   0.806
 8832WAT     H227039   6.019   1.124   0.648
 8833WAT      O27040   6.857   1.797   0.591
 8833WAT     H127041   6.901   1.861   0.527
 8833WAT     H227042   6.807   1.849   0.661
 8834WAT      O27043   6.618   0.549   0.016
 8834WAT     H127044   6.577   0.631  -0.023
 8834WAT     H227045   6.682   0.575   0.089
 8835WAT      O27046   5.664   0.556   1.386
 8835WAT     H127047   5.756   0.555   1.345
 8835WAT     H227048   5.658   0.630   1.453
 8836WAT      O27049   6.147   0.222   1.147
 8836WAT     H127050   6.185   0.138   1.184
 8836WAT     H227051   6.059   0.241   1.191
 8837WAT      O27052   6.452   0.454   0.642
 8837WAT     H127053   6.420   0.526   0.580
 8837WAT     H227054   6.476   0.373   0.589
 8838WAT      O27055   6.603   0.039   0.753
 8838WAT     H127056   6.531   0.044   0.684
 8838WAT     H227057   6.579  -0.030   0.822
 8839WAT      O27058   6.074   1.385   0.174
 8839WAT     H127059   5.987   1.370   0.221
 8839WAT     H227060   6.057   1.411   0.079
 8840WAT      O27061   6.113   0.256   0.328
 8840WAT     H127062   6.140   0.197   0.253
 8840WAT     H227063   6.113   0.351   0.297
 8841WAT      O27064   6.650   1.347   1.340
 8841WAT     H127065   6.570   1.324   1.395
 8841WAT     H227066   6.733   1.321   1.389
 8842WAT      O27067   6.697   1.195   1.100
 8842WAT     H127068   6.657   1.239   1.181
 8842WAT     H227069   6.656   1.232   1.017
 8843WAT      O27070   6.501   0.089   1.402
 8843WAT     H127071   6.526   0.069   1.307
 8843WAT     H227072   6.573   0.145   1.444
 8844WAT      O27073   6.566   1.116   1.719
 8844WAT     H127074   6.467   1.122   1.729
 8844WAT     H227075   6.589   1.036   1.663
 8845WAT      O27076   6.291   1.050   0.368
 8845WAT     H127077   6.277   1.057   0.467
 8845WAT     H227078   6.375   0.999   0.350
 8846WAT      O27079   5.996   0.813   1.251
 8846WAT     H127080   6.082   0.825   1.301
 8846WAT     H227081   5.954   0.726   1.278
 8847WAT      O27082   6.860   0.386   1.262
 8847WAT     H127083   6.881   0.460   1.326
 8847WAT     H227084   6.771   0.403   1.219
 8848WAT      O27085   5.650   1.564   1.331
 8848WAT     H127086   5.604   1.646   1.297
 8848WAT     H227087   5.748   1.583   1.340
 8849WAT      O27088   5.953   1.100   0.501
 8849WAT     H127089   5.946   1.183   0.445
 8849WAT     H227090   5.957   1.020   0.441
 8850WAT      O27091   6.152   0.537   0.865
 8850WAT     H127092   6.164   0.603   0.791
 8850WAT     H227093   6.198   0.571   0.948
 8851WAT      O27094   6.838   1.348   0.388
 8851WAT     H127095   6.888   1.425   0.428
 8851WAT     H227096   6.743   1.350   0.420
 8852WAT      O27097   6.858   1.445   1.142
 8852WAT     H127098   6.905   1.458   1.229
 8852WAT     H227099   6.792   1.371   1.151
 8853WAT      O27100   5.940   1.510   1.329
 8853WAT     H127101   5.919   1.466   1.242
 8853WAT     H227102   6.037   1.536   1.332
 8854WAT      O27103   5.988   0.751   1.598
 8854WAT     H127104   6.056   0.806   1.551
 8854WAT     H227105   6.028   0.663   1.625
 8855WAT      O27106   6.599   0.105   1.770
 8855WAT     H127107   6.605   0.190   1.718
 8855WAT     H227108   6.631   0.029   1.713
 8856WAT      O27109   6.090   0.050   1.740
 8856WAT     H127110   6.048  -0.007   1.670
 8856WAT     H227111   6.024   0.119   1.772
 8857WAT      O27112   6.159   0.870   1.029
 8857WAT     H127113   6.203   0.959   1.020
 8857WAT     H227114   6.096   0.870   1.106
 8858WAT      O27115   6.946   0.862   1.045
 8858WAT     H127116   6.871   0.862   0.979
 8858WAT     H227117   6.983   0.770   1.054
 8859WAT      O27118   6.795   0.525   0.275
 8859WAT     H127119   6.808   0.441   0.329
 8859WAT     H227120   6.766   0.599   0.335
 8860WAT      O27121   5.893   0.213   1.231
 8860WAT     H127122   5.870   0.250   1.321
 8860WAT     H227123   5.863   0.118   1.225
 8861WAT      O27124   5.623   1.310   1.282
 8861WAT     H127125   5.676   1.261   1.350
 8861WAT     H227126   5.645   1.408   1.287
 8862WAT      O27127   6.318   0.634   1.064
 8862WAT     H127128   6.377   0.608   0.988
 8862WAT     H227129   6.290   0.730   1.053
 8863WAT      O27130   5.893   0.063   0.618
 8863WAT     H127131   5.882   0.157   0.651
 8863WAT     H227132   5.888   0.000   0.695
 8864WAT      O27133   7.208   0.367   0.374
 8864WAT     H127134   7.210   0.291   0.438
 8864WAT     H227135   7.160   0.444   0.414
 8865WAT      O27136   6.609   0.766   0.966
 8865WAT     H127137   6.624   0.787   1.062
 8865WAT     H227138   6.579   0.671   0.957
 8866WAT      O27139   6.566   1.573   1.700
 8866WAT     H127140   6.546   1.617   1.612
 8866WAT     H227141   6.605   1.482   1.684
 8867WAT      O27142   5.936   0.898   1.804
 8867WAT     H127143   6.012   0.942   1.852
 8867WAT     H227144   5.971   0.851   1.722
 8868WAT      O27145   6.889   0.838   0.042
 8868WAT     H127146   6.923   0.745   0.057
 8868WAT     H227147   6.907   0.865  -0.053
 8869WAT      O27148   6.654   1.333   0.849
 8869WAT     H127149   6.661   1.249   0.794
 8869WAT     H227150   6.716   1.402   0.813
 8870WAT      O27151   5.905   0.810   0.949
 8870WAT     H127152   5.998   0.846   0.954
 8870WAT     H227153   5.899   0.725   1.001
 8871WAT      O27154   5.925   0.509   1.006
 8871WAT     H127155   5.873   0.426   0.989
 8871WAT     H227156   6.002   0.514   0.942
 8872WAT      O27157   6.724   0.380   1.678
 8872WAT     H127158   6.679   0.443   1.742
 8872WAT     H227159   6.817   0.411   1.661
 8873WAT      O27160   6.746   0.207   1.477
 8873WAT     H127161   6.746   0.271   1.554
 8873WAT     H227162   6.774   0.255   1.394
 8874WAT      O27163   5.674   1.801   0.927
 8874WAT     H127164   5.632   1.715   0.900
 8874WAT     H227165   5.768   1.804   0.893
 8875WAT      O27166   6.090   1.568   0.910
 8875WAT     H127167   6.156   1.642   0.919
 8875WAT     H227168   6.134   1.489   0.868
 8876WAT      O27169   6.588   0.796   1.238
 8876WAT     H127170   6.629   0.764   1.324
 8876WAT     H227171   6.492   0.769   1.235
 8877WAT      O27172   5.626   0.544   1.114
 8877WAT     H127173   5.711   0.511   1.073
 8877WAT     H227174   5.639   0.559   1.212
 8878WAT      O27175   5.775   0.520   1.722
 8878WAT     H127176   5.834   0.480   1.652
 8878WAT     H227177   5.717   0.591   1.681
 8879WAT      O27178   6.401   0.572   0.325
 8879WAT     H127179   6.408   0.483   0.279
 8879WAT     H227180   6.307   0.606   0.317
 8880WAT      O27181   5.838   1.564   1.744
 8880WAT     H127182   5.808   1.621   1.820
 8880WAT     H227183   5.831   1.467   1.770
 8881WAT      O27184   6.257   0.464   1.269
 8881WAT     H127185   6.223   0.375   1.239
 8881WAT     H227186   6.283   0.518   1.189
 8882WAT      O27187   6.516   1.678   1.465
 8882WAT     H127188   6.492   1.660   1.370
 8882WAT     H227189   6.546   1.772   1.475
 8883WAT      O27190   6.059   0.500   0.191
 8883WAT     H127191   6.120   0.580   0.195
 8883WAT     H227192   5.964   0.531   0.198
 8884WAT      O27193   5.745   1.137   1.466
 8884WAT     H127194   5.767   1.076   1.542
 8884WAT     H227195   5.755   1.088   1.380
 8885WAT      O27196   6.933   1.059   1.234
 8885WAT     H127197   6.957   0.996   1.160
 8885WAT     H227198   6.843   1.099   1.216
 8886WAT      O27199   6.888   0.855   0.309
 8886WAT     H127200   6.802   0.824   0.351
 8886WAT     H227201   6.884   0.841   0.210
 8887WAT      O27202   6.838   1.731   1.128
 8887WAT     H127203   6.922   1.736   1.074
 8887WAT     H227204   6.815   1.635   1.146
 8888WAT      O27205   5.669   1.258   1.022
 8888WAT     H127206   5.664   1.257   1.122
 8888WAT     H227207   5.586   1.217   0.984
 8889WAT      O27208   6.274   1.662   1.716
 8889WAT     H127209   6.218   1.743   1.725
 8889WAT     H227210   6.326   1.666   1.630
 8890WAT      O27211   6.489   0.086   0.133
 8890WAT     H127212   6.540   0.087   0.047
 8890WAT     H227213   6.545   0.044   0.204
 8891WAT      O27214   6.974   1.573   0.477
 8891WAT     H127215   7.041   1.585   0.403
 8891WAT     H227216   6.934   1.662   0.500
 8892WAT      O27217   5.716   1.794   1.851
 8892WAT     H127218   5.675   1.720   1.904
 8892WAT     H227219   5.780   1.845   1.909
 8893WAT      O27220   6.866   0.927   0.672
 8893WAT     H127221   6.926   0.846   0.674
 8893WAT     H227222   6.906   0.996   0.612
 8894WAT      O27223   6.416   1.273   1.422
 8894WAT     H127224   6.411   1.306   1.517
 8894WAT     H227225   6.330   1.292   1.376
 8895WAT      O27226   6.258   1.616   0.154
 8895WAT     H127227   6.267   1.626   0.055
 8895WAT     H227228   6.218   1.527   0.175
 8896WAT      O27229   5.849   0.326   0.720
 8896WAT     H127230   5.770   0.377   0.686
 8896WAT     H227231   5.840   0.311   0.818
 8897WAT      O27232   6.780   1.612   0.031
 8897WAT     H127233   6.786   1.519   0.068
 8897WAT     H227234   6.721   1.612  -0.049
 8898WAT      O27235   6.408   1.002   1.372
 8898WAT     H127236   6.448   1.001   1.280
 8898WAT     H227237   6.418   1.094   1.412
 8899WAT      O27238   6.502   0.910   0.291
 8899WAT     H127239   6.565   0.948   0.223
 8899WAT     H227240   6.542   0.827   0.330
 8900WAT      O27241   5.958   1.288   1.490
 8900WAT     H127242   5.945   1.381   1.456
 8900WAT     H227243   5.874   1.236   1.477
 8901WAT      O27244   6.625   1.098   0.696
 8901WAT     H127245   6.555   1.051   0.750
 8901WAT     H227246   6.684   1.030   0.653
 8902WAT      O27247   6.600   0.236   0.971
 8902WAT     H127248   6.592   0.200   0.878
 8902WAT     H227249   6.598   0.160   1.036
 8903WAT      O27250   6.176   1.487   0.491
 8903WAT     H127251   6.218   1.429   0.421
 8903WAT     H227252   6.132   1.566   0.447
 8904WAT      O27253   5.841   1.348   0.290
 8904WAT     H127254   5.745   1.349   0.263
 8904WAT     H227255   5.853   1.401   0.374
 8905WAT      O27256   5.691   1.013   1.726
 8905WAT     H127257   5.614   0.980   1.780
 8905WAT     H227258   5.776   0.983   1.768
 8906WAT      O27259   6.258   0.203   1.489
 8906WAT     H127260   6.348   0.187   1.449
 8906WAT     H227261   6.266   0.208   1.588
 8907WAT      O27262   5.661   0.345   0.033
 8907WAT     H127263   5.569   0.317   0.004
 8907WAT     H227264   5.692   0.422  -0.023
 8908WAT      O27265   5.658   0.166   0.318
 8908WAT     H127266   5.641   0.249   0.264
 8908WAT     H227267   5.748   0.129   0.296
 8909WAT      O27268   6.199   0.842   1.431
 8909WAT     H127269   6.255   0.923   1.414
 8909WAT     H227270   6.258   0.762   1.434
 8910WAT      O27271   6.302   0.565   1.708
 8910WAT     H127272   6.321   0.630   1.782
 8910WAT     H227273   6.362   0.485   1.717
 8911WAT      O27274   7.036   1.220   1.633
 8911WAT     H127275   7.027   1.210   1.732
 8911WAT     H227276   7.132   1.213   1.607
 8912WAT      O27277   5.976   1.741   1.560
 8912WAT     H127278   5.885   1.782   1.558
 8912WAT     H227279   5.969   1.647   1.592
 8913WAT      O27280   6.811   0.325   0.449
 8913WAT     H127281   6.876   0.251   0.438
 8913WAT     H227282   6.831   0.375   0.533
 8914WAT      O27283   6.180   0.745   0.652
 8914WAT     H127284   6.230   0.830   0.633
 8914WAT     H227285   6.092   0.747   0.604
 8915WAT      O27286   6.445   1.374   0.016
 8915WAT     H127287   6.399   1.389   0.104
 8915WAT     H227288   6.489   1.459  -0.014
 8916WAT      O27289   6.247   1.790   0.953
 8916WAT     H127290   6.201   1.878   0.940
 8916WAT     H227291   6.346   1.802   0.946
 8917WAT      O27292   6.445   0.956   0.861
 8917WAT     H127293   6.499   0.887   0.909
 8917WAT     H227294   6.413   1.025   0.927
 8918WAT      O27295   6.669   0.984   0.087
 8918WAT     H127296   6.646   1.037   0.005
 8918WAT     H227297   6.750   0.928   0.068
 8919WAT      O27298   5.807   1.314   1.844
 8919WAT     H127299   5.742   1.241   1.823
 8919WAT     H227300   5.811   1.328   1.942
 8920WAT      O27301   5.665   1.240   0.653
 8920WAT     H127302   5.664   1.193   0.741
 8920WAT     H227303   5.747   1.212   0.602
 8921WAT      O27304   6.258   1.391   1.624
 8921WAT     H127305   6.180   1.341   1.662
 8921WAT     H227306   6.255   1.486   1.655
 8922WAT      O27307   6.014   0.424   0.520
 8922WAT     H127308   6.044   0.352   0.458
 8922WAT     H227309   5.975   0.384   0.603
 8923WAT      O27310   5.903   0.547   1.280
 8923WAT     H127311   5.941   0.488   1.352
 8923WAT     H227312   5.943   0.521   1.192
 8924WAT      O27313   6.398   1.586   0.687
 8924WAT     H127314   6.430   1.596   0.593
 8924WAT     H227315   6.319   1.524   0.689
 8925WAT      O27316   7.010   0.214   1.112
 8925WAT     H127317   7.062   0.149   1.167
 8925WAT     H227318   6.961   0.277   1.173
 8926WAT      O27319   6.587   0.034   1.154
 8926WAT     H127320   6.524  -0.038   1.123
 8926WAT     H227321   6.680  -0.002   1.154
 8927WAT      O27322   6.356   1.330   0.301
 8927WAT     H127323   6.310   1.243   0.318
 8927WAT     H227324   6.447   1.327   0.342
 8928WAT      O27325   6.204   1.567   1.284
 8928WAT     H127326   6.199   1.649   1.341
 8928WAT     H227327   6.293   1.564   1.239
 8929WAT      O27328   5.625   1.077   0.300
 8929WAT     H127329   5.724   1.066   0.291
 8929WAT     H227330   5.585   0.991   0.332
 8930WAT      O27331   6.461   1.646   0.337
 8930WAT     H127332   6.384   1.611   0.283
 8930WAT     H227333   6.429   1.717   0.399
 8931WAT      O27334   5.816   0.628   1.975
 8931WAT     H127335   5.723   0.626   2.012
 8931WAT     H227336   5.817   0.589   1.883
 8932WAT      O27337   5.811   0.275   2.858
 8932WAT     H127338   5.846   0.258   2.950
 8932WAT     H227339   5.723   0.230   2.846
 8933WAT      O27340   5.605   0.368   2.509
 8933WAT     H127341   5.523   0.411   2.548
 8933WAT     H227342   5.577   0.295   2.446
 8934WAT      O27343   6.155   1.275   3.027
 8934WAT     H127344   6.062   1.268   2.990
 8934WAT     H227345   6.166   1.364   3.071
 8935WAT      O27346   7.141   1.511   2.565
 8935WAT     H127347   7.084   1.495   2.646
 8935WAT     H227348   7.082   1.521   2.485
 8936WAT      O27349   6.721   0.703   2.579
 8936WAT     H127350   6.778   0.781   2.554
 8936WAT     H227351   6.661   0.729   2.655
 8937WAT      O27352   6.354   1.144   2.885
 8937WAT     H127353   6.276   1.161   2.945
 8937WAT     H227354   6.388   1.231   2.849
 8938WAT      O27355   6.436   0.798   3.685
 8938WAT     H127356   6.432   0.874   3.750
 8938WAT     H227357   6.458   0.834   3.594
 8939WAT      O27358   6.271   1.012   2.527
 8939WAT     H127359   6.340   0.996   2.597
 8939WAT     H227360   6.198   1.069   2.565
 8940WAT      O27361   6.272   1.161   3.665
 8940WAT     H127362   6.332   1.240   3.679
 8940WAT     H227363   6.186   1.192   3.624
 8941WAT      O27364   5.921   1.435   2.923
 8941WAT     H127365   5.843   1.404   2.870
 8941WAT     H227366   5.979   1.493   2.866
 8942WAT      O27367   6.024   0.392   3.361
 8942WAT     H127368   6.106   0.336   3.370
 8942WAT     H227369   5.943   0.334   3.365
 8943WAT      O27370   5.817   1.713   2.345
 8943WAT     H127371   5.851   1.790   2.399
 8943WAT     H227372   5.861   1.713   2.255
 8944WAT      O27373   6.713   1.341   3.552
 8944WAT     H127374   6.760   1.341   3.640
 8944WAT     H227375   6.665   1.254   3.541
 8945WAT      O27376   5.816   1.434   2.400
 8945WAT     H127377   5.790   1.530   2.400
 8945WAT     H227378   5.745   1.380   2.445
 8946WAT      O27379   5.826   1.091   2.748
 8946WAT     H127380   5.840   1.007   2.800
 8946WAT     H227381   5.771   1.155   2.803
 8947WAT      O27382   6.206   1.786   3.301
 8947WAT     H127383   6.114   1.769   3.336
 8947WAT     H227384   6.234   1.878   3.327
 8948WAT      O27385   6.192   0.964   1.985
 8948WAT     H127386   6.199   1.048   1.931
 8948WAT     H227387   6.238   0.977   2.073
 8949WAT      O27388   5.708   0.643   2.425
 8949WAT     H127389   5.663   0.555   2.442
 8949WAT     H227390   5.707   0.697   2.509
 8950WAT      O27391   5.613   1.596   1.979
 8950WAT     H127392   5.594   1.500   2.000
 8950WAT     H227393   5.580   1.654   2.054
 8951WAT      O27394   5.699   0.737   3.459
 8951WAT     H127395   5.787   0.724   3.504
 8951WAT     H227396   5.686   0.834   3.437
 8952WAT      O27397   6.199   1.365   2.588
 8952WAT     H127398   6.150   1.278   2.597
 8952WAT     H227399   6.176   1.408   2.501
 8953WAT      O27400   6.879   1.228   3.285
 8953WAT     H127401   6.916   1.155   3.227
 8953WAT     H227402   6.931   1.233   3.370
 8954WAT      O27403   6.395   0.004   2.364
 8954WAT     H127404   6.435   0.095   2.355
 8954WAT     H227405   6.295   0.012   2.370
 8955WAT      O27406   5.783   0.976   3.126
 8955WAT     H127407   5.872   0.931   3.112
 8955WAT     H227408   5.710   0.911   3.107
 8956WAT      O27409   6.773   1.792   3.478
 8956WAT     H127410   6.797   1.852   3.402
 8956WAT     H227411   6.780   1.697   3.448
 8957WAT      O27412   5.903   0.251   3.663
 8957WAT     H127413   5.974   0.322   3.669
 8957WAT     H227414   5.815   0.290   3.691
 8958WAT      O27415   6.184   0.729   2.132
 8958WAT     H127416   6.208   0.798   2.064
 8958WAT     H227417   6.106   0.762   2.186
 8959WAT      O27418   6.867   0.345   2.806
 8959WAT     H127419   6.781   0.295   2.793
 8959WAT     H227420   6.929   0.291   2.862
 8960WAT      O27421   6.393   0.605   3.327
 8960WAT     H127422   6.346   0.602   3.416
 8960WAT     H227423   6.342   0.550   3.261
 8961WAT      O27424   6.980   0.469   3.536
 8961WAT     H127425   6.960   0.512   3.624
 8961WAT     H227426   7.058   0.407   3.545
 8962WAT      O27427   6.559   0.890   3.434
 8962WAT     H127428   6.605   0.806   3.405
 8962WAT     H227429   6.503   0.924   3.359
 8963WAT      O27430   6.577   0.410   3.104
 8963WAT     H127431   6.500   0.444   3.158
 8963WAT     H227432   6.543   0.359   3.025
 8964WAT      O27433   6.627   0.701   2.291
 8964WAT     H127434   6.653   0.697   2.387
 8964WAT     H227435   6.542   0.650   2.277
 8965WAT      O27436   5.662   0.811   2.651
 8965WAT     H127437   5.761   0.799   2.660
 8965WAT     H227438   5.638   0.906   2.672
 8966WAT      O27439   5.716   1.821   3.433
 8966WAT     H127440   5.706   1.806   3.532
 8966WAT     H227441   5.630   1.857   3.397
 8967WAT      O27442   6.451   0.348   2.057
 8967WAT     H127443   6.510   0.411   2.008
 8967WAT     H227444   6.470   0.254   2.028
 8968WAT      O27445   6.948   1.144   2.407
 8968WAT     H127446   7.031   1.115   2.359
 8968WAT     H227447   6.899   1.211   2.351
 8969WAT      O27448   6.136   0.196   2.747
 8969WAT     H127449   6.131   0.191   2.847
 8969WAT     H227450   6.138   0.292   2.718
 8970WAT      O27451   6.594   1.456   2.339
 8970WAT     H127452   6.548   1.528   2.287
 8970WAT     H227453   6.590   1.476   2.437
 8971WAT      O27454   5.937   1.801   2.715
 8971WAT     H127455   5.987   1.715   2.721
 8971WAT     H227456   6.002   1.878   2.712
 8972WAT      O27457   6.813   1.550   3.368
 8972WAT     H127458   6.819   1.473   3.432
 8972WAT     H227459   6.761   1.524   3.288
 8973WAT      O27460   5.907   0.943   2.104
 8973WAT     H127461   5.989   0.982   2.062
 8973WAT     H227462   5.880   0.861   2.055
 8974WAT      O27463   6.047   1.266   3.589
 8974WAT     H127464   5.997   1.267   3.503
 8974WAT     H227465   5.984   1.248   3.665
 8975WAT      O27466   6.697   1.776   2.099
 8975WAT     H127467   6.637   1.714   2.149
 8975WAT     H227468   6.728   1.732   2.014
 8976WAT      O27469   5.788   0.285   3.360
 8976WAT     H127470   5.708   0.345   3.347
 8976WAT     H227471   5.778   0.236   3.446
 8977WAT      O27472   6.050   1.743   2.185
 8977WAT     H127473   6.083   1.782   2.271
 8977WAT     H227474   6.126   1.736   2.120
 8978WAT      O27475   5.835   1.785   3.103
 8978WAT     H127476   5.892   1.720   3.153
 8978WAT     H227477   5.819   1.752   3.010
 8979WAT      O27478   6.526   1.698   2.766
 8979WAT     H127479   6.606   1.641   2.787
 8979WAT     H227480   6.477   1.658   2.689
 8980WAT      O27481   5.968   0.700   2.342
 8980WAT     H127482   6.013   0.610   2.339
 8980WAT     H227483   5.874   0.689   2.375
 8981WAT      O27484   6.200   0.122   1.979
 8981WAT     H127485   6.298   0.100   1.986
 8981WAT     H227486   6.169   0.105   1.886
 8982WAT      O27487   6.367   0.264   3.611
 8982WAT     H127488   6.434   0.203   3.654
 8982WAT     H227489   6.294   0.283   3.676
 8983WAT      O27490   6.474   1.514   3.057
 8983WAT     H127491   6.451   1.489   2.963
 8983WAT     H227492   6.535   1.445   3.096
 8984WAT      O27493   6.389   1.402   2.786
 8984WAT     H127494   6.479   1.416   2.744
 8984WAT     H227495   6.318   1.404   2.715
 8985WAT      O27496   6.508   0.503   2.761
 8985WAT     H127497   6.483   0.494   2.665
 8985WAT     H227498   6.556   0.421   2.792
 8986WAT      O27499   6.125   0.064   2.374
 8986WAT     H127500   6.044   0.065   2.432
 8986WAT     H227501   6.128   0.147   2.319
 8987WAT      O27502   7.020   1.188   1.903
 8987WAT     H127503   7.052   1.112   1.960
 8987WAT     H227504   6.928   1.215   1.933
 8988WAT      O27505   5.883   0.035   2.033
 8988WAT     H127506   5.932   0.119   2.012
 8988WAT     H227507   5.945  -0.030   2.078
 8989WAT      O27508   6.521   0.236   2.342
 8989WAT     H127509   6.473   0.277   2.264
 8989WAT     H227510   6.620   0.234   2.323
 8990WAT      O27511   6.662   0.683   3.326
 8990WAT     H127512   6.582   0.622   3.329
 8990WAT     H227513   6.743   0.630   3.302
 8991WAT      O27514   6.813   1.570   2.655
 8991WAT     H127515   6.834   1.644   2.590
 8991WAT     H227516   6.881   1.570   2.728
 8992WAT      O27517   6.045   1.152   2.603
 8992WAT     H127518   5.974   1.125   2.668
 8992WAT     H227519   6.019   1.124   2.510
 8993WAT      O27520   6.857   1.797   2.453
 8993WAT     H127521   6.901   1.861   2.389
 8993WAT     H227522   6.807   1.849   2.523
 8994WAT      O27523   6.618   0.549   1.878
 8994WAT     H127524   6.577   0.631   1.839
 8994WAT     H227525   6.682   0.575   1.951
 8995WAT      O27526   5.664   0.556   3.248
 8995WAT     H127527   5.756   0.555   3.207
 8995WAT     H227528   5.658   0.630   3.315
 8996WAT      O27529   6.147   0.222   3.009
 8996WAT     H127530   6.185   0.138   3.046
 8996WAT     H227531   6.059   0.241   3.053
 8997WAT      O27532   6.452   0.454   2.504
 8997WAT     H127533   6.420   0.526   2.442
 8997WAT     H227534   6.476   0.373   2.451
 8998WAT      O27535   6.603   0.039   2.615
 8998WAT     H127536   6.531   0.044   2.546
 8998WAT     H227537   6.579  -0.030   2.684
 8999WAT      O27538   6.074   1.385   2.036
 8999WAT     H127539   5.987   1.370   2.083
 8999WAT     H227540   6.057   1.411   1.941
 9000WAT      O27541   6.113   0.256   2.190
 9000WAT     H127542   6.140   0.197   2.115
 9000WAT     H227543   6.113   0.351   2.159
 9001WAT      O27544   6.650   1.347   3.202
 9001WAT     H127545   6.570   1.324   3.257
 9001WAT     H227546   6.733   1.321   3.251
 9002WAT      O27547   6.697   1.195   2.962
 9002WAT     H127548   6.657   1.239   3.043
 9002WAT     H227549   6.656   1.232   2.879
 9003WAT      O27550   6.501   0.089   3.264
 9003WAT     H127551   6.526   0.069   3.169
 9003WAT     H227552   6.573   0.145   3.306
 9004WAT      O27553   6.566   1.116   3.581
 9004WAT     H127554   6.467   1.122   3.591
 9004WAT     H227555   6.589   1.036   3.525
 9005WAT      O27556   6.291   1.050   2.230
 9005WAT     H127557   6.277   1.057   2.329
 9005WAT     H227558   6.375   0.999   2.212
 9006WAT      O27559   5.996   0.813   3.113
 9006WAT     H127560   6.082   0.825   3.163
 9006WAT     H227561   5.954   0.726   3.140
 9007WAT      O27562   6.860   0.386   3.124
 9007WAT     H127563   6.881   0.460   3.188
 9007WAT     H227564   6.771   0.403   3.081
 9008WAT      O27565   5.650   1.564   3.193
 9008WAT     H127566   5.604   1.646   3.159
 9008WAT     H227567   5.748   1.583   3.202
 9009WAT      O27568   5.953   1.100   2.363
 9009WAT     H127569   5.946   1.183   2.307
 9009WAT     H227570   5.957   1.020   2.303
 9010WAT      O27571   6.152   0.537   2.727
 9010WAT     H127572   6.164   0.603   2.653
 9010WAT     H227573   6.198   0.571   2.810
 9011WAT      O27574   6.838   1.348   2.250
 9011WAT     H127575   6.888   1.425   2.290
 9011WAT     H227576   6.743   1.350   2.282
 9012WAT      O27577   6.858   1.445   3.004
 9012WAT     H127578   6.905   1.458   3.091
 9012WAT     H227579   6.792   1.371   3.013
 9013WAT      O27580   5.940   1.510   3.191
 9013WAT     H127581   5.919   1.466   3.104
 9013WAT     H227582   6.037   1.536   3.194
 9014WAT      O27583   5.988   0.751   3.460
 9014WAT     H127584   6.056   0.806   3.413
 9014WAT     H227585   6.028   0.663   3.487
 9015WAT      O27586   6.599   0.105   3.632
 9015WAT     H127587   6.605   0.190   3.580
 9015WAT     H227588   6.631   0.029   3.575
 9016WAT      O27589   6.090   0.050   3.602
 9016WAT     H127590   6.048  -0.007   3.532
 9016WAT     H227591   6.024   0.119   3.634
 9017WAT      O27592   6.159   0.870   2.891
 9017WAT     H127593   6.203   0.959   2.882
 9017WAT     H227594   6.096   0.870   2.968
 9018WAT      O27595   6.946   0.862   2.907
 9018WAT     H127596   6.871   0.862   2.841
 9018WAT     H227597   6.983   0.770   2.916
 9019WAT      O27598   6.795   0.525   2.137
 9019WAT     H127599   6.808   0.441   2.191
 9019WAT     H227600   6.766   0.599   2.197
 9020WAT      O27601   5.893   0.213   3.093
 9020WAT     H127602   5.870   0.250   3.183
 9020WAT     H227603   5.863   0.118   3.087
 9021WAT      O27604   5.623   1.310   3.144
 9021WAT     H127605   5.676   1.261   3.212
 9021WAT     H227606   5.645   1.408   3.149
 9022WAT      O27607   6.318   0.634   2.926
 9022WAT     H127608   6.377   0.608   2.850
 9022WAT     H227609   6.290   0.730   2.915
 9023WAT      O27610   5.893   0.063   2.480
 9023WAT     H127611   5.882   0.157   2.513
 9023WAT     H227612   5.888   0.000   2.557
 9024WAT      O27613   7.208   0.367   2.236
 9024WAT     H127614   7.210   0.291   2.300
 9024WAT     H227615   7.160   0.444   2.276
 9025WAT      O27616   6.609   0.766   2.828
 9025WAT     H127617   6.624   0.787   2.924
 9025WAT     H227618   6.579   0.671   2.819
 9026WAT      O27619   6.566   1.573   3.562
 9026WAT     H127620   6.546   1.617   3.474
 9026WAT     H227621   6.605   1.482   3.546
 9027WAT      O27622   5.936   0.898   3.666
 9027WAT     H127623   6.012   0.942   3.714
 9027WAT     H227624   5.971   0.851   3.584
 9028WAT      O27625   6.889   0.838   1.904
 9028WAT     H127626   6.923   0.745   1.919
 9028WAT     H227627   6.907   0.865   1.809
 9029WAT      O27628   6.654   1.333   2.711
 9029WAT     H127629   6.661   1.249   2.656
 9029WAT     H227630   6.716   1.402   2.675
 9030WAT      O27631   5.905   0.810   2.811
 9030WAT     H127632   5.998   0.846   2.816
 9030WAT     H227633   5.899   0.725   2.863
 9031WAT      O27634   5.925   0.509   2.868
 9031WAT     H127635   5.873   0.426   2.851
 9031WAT     H227636   6.002   0.514   2.804
 9032WAT      O27637   6.724   0.380   3.540
 9032WAT     H127638   6.679   0.443   3.604
 9032WAT     H227639   6.817   0.411   3.523
 9033WAT      O27640   6.746   0.207   3.339
 9033WAT     H127641   6.746   0.271   3.416
 9033WAT     H227642   6.774   0.255   3.256
 9034WAT      O27643   5.594   1.326   2.062
 9034WAT     H127644   5.501   1.347   2.031
 9034WAT     H227645   5.604   1.227   2.075
 9035WAT      O27646   5.674   1.801   2.789
 9035WAT     H127647   5.632   1.715   2.762
 9035WAT     H227648   5.768   1.804   2.755
 9036WAT      O27649   6.090   1.568   2.772
 9036WAT     H127650   6.156   1.642   2.781
 9036WAT     H227651   6.134   1.489   2.730
 9037WAT      O27652   6.588   0.796   3.100
 9037WAT     H127653   6.629   0.764   3.186
 9037WAT     H227654   6.492   0.769   3.097
 9038WAT      O27655   5.626   0.544   2.976
 9038WAT     H127656   5.711   0.511   2.935
 9038WAT     H227657   5.639   0.559   3.074
 9039WAT      O27658   5.775   0.520   3.584
 9039WAT     H127659   5.834   0.480   3.514
 9039WAT     H227660   5.717   0.591   3.543
 9040WAT      O27661   6.401   0.572   2.187
 9040WAT     H127662   6.408   0.483   2.141
 9040WAT     H227663   6.307   0.606   2.179
 9041WAT      O27664   5.838   1.564   3.606
 9041WAT     H127665   5.808   1.621   3.682
 9041WAT     H227666   5.831   1.467   3.632
 9042WAT      O27667   6.257   0.464   3.131
 9042WAT     H127668   6.223   0.375   3.101
 9042WAT     H227669   6.283   0.518   3.051
 9043WAT      O27670   6.516   1.678   3.327
 9043WAT     H127671   6.492   1.660   3.232
 9043WAT     H227672   6.546   1.772   3.337
 9044WAT      O27673   6.059   0.500   2.053
 9044WAT     H127674   6.120   0.580   2.057
 9044WAT     H227675   5.964   0.531   2.060
 9045WAT      O27676   5.745   1.137   3.328
 9045WAT     H127677   5.767   1.076   3.404
 9045WAT     H227678   5.755   1.088   3.242
 9046WAT      O27679   6.933   1.059   3.096
 9046WAT     H127680   6.957   0.996   3.022
 9046WAT     H227681   6.843   1.099   3.078
 9047WAT      O27682   6.888   0.855   2.171
 9047WAT     H127683   6.802   0.824   2.213
 9047WAT     H227684   6.884   0.841   2.072
 9048WAT      O27685   6.838   1.731   2.990
 9048WAT     H127686   6.922   1.736   2.936
 9048WAT     H227687   6.815   1.635   3.008
 9049WAT      O27688   5.669   1.258   2.884
 9049WAT     H127689   5.664   1.257   2.984
 9049WAT     H227690   5.586   1.217   2.846
 9050WAT      O27691   6.274   1.662   3.578
 9050WAT     H127692   6.218   1.743   3.587
 9050WAT     H227693   6.326   1.666   3.492
 9051WAT      O27694   6.974   1.573   2.339
 9051WAT     H127695   7.041   1.585   2.265
 9051WAT     H227696   6.934   1.662   2.362
 9052WAT      O27697   5.716   1.794   3.713
 9052WAT     H127698   5.675   1.720   3.766
 9052WAT     H227699   5.780   1.845   3.771
 9053WAT      O27700   6.866   0.927   2.534
 9053WAT     H127701   6.926   0.846   2.536
 9053WAT     H227702   6.906   0.996   2.474
 9054WAT      O27703   6.416   1.273   3.284
 9054WAT     H127704   6.411   1.306   3.379
 9054WAT     H227705   6.330   1.292   3.238
 9055WAT      O27706   6.258   1.616   2.016
 9055WAT     H127707   6.267   1.626   1.917
 9055WAT     H227708   6.218   1.527   2.037
 9056WAT      O27709   5.849   0.326   2.582
 9056WAT     H127710   5.770   0.377   2.548
 9056WAT     H227711   5.840   0.311   2.680
 9057WAT      O27712   6.780   1.612   1.893
 9057WAT     H127713   6.786   1.519   1.930
 9057WAT     H227714   6.721   1.612   1.813
 9058WAT      O27715   6.408   1.002   3.234
 9058WAT     H127716   6.448   1.001   3.142
 9058WAT     H227717   6.418   1.094   3.274
 9059WAT      O27718   6.502   0.910   2.153
 9059WAT     H127719   6.565   0.948   2.085
 9059WAT     H227720   6.542   0.827   2.192
 9060WAT      O27721   5.958   1.288   3.352
 9060WAT     H127722   5.945   1.381   3.318
 9060WAT     H227723   5.874   1.236   3.339
 9061WAT      O27724   6.625   1.098   2.558
 9061WAT     H127725   6.555   1.051   2.612
 9061WAT     H227726   6.684   1.030   2.515
 9062WAT      O27727   6.600   0.236   2.833
 9062WAT     H127728   6.592   0.200   2.740
 9062WAT     H227729   6.598   0.160   2.898
 9063WAT      O27730   6.176   1.487   2.353
 9063WAT     H127731   6.218   1.429   2.283
 9063WAT     H227732   6.132   1.566   2.309
 9064WAT      O27733   5.841   1.348   2.152
 9064WAT     H127734   5.745   1.349   2.125
 9064WAT     H227735   5.853   1.401   2.236
 9065WAT      O27736   5.691   1.013   3.588
 9065WAT     H127737   5.614   0.980   3.642
 9065WAT     H227738   5.776   0.983   3.630
 9066WAT      O27739   6.258   0.203   3.351
 9066WAT     H127740   6.348   0.187   3.311
 9066WAT     H227741   6.266   0.208   3.450
 9067WAT      O27742   5.661   0.345   1.895
 9067WAT     H127743   5.569   0.317   1.866
 9067WAT     H227744   5.692   0.422   1.839
 9068WAT      O27745   5.658   0.166   2.180
 9068WAT     H127746   5.641   0.249   2.126
 9068WAT     H227747   5.748   0.129   2.158
 9069WAT      O27748   6.199   0.842   3.293
 9069WAT     H127749   6.255   0.923   3.276
 9069WAT     H227750   6.258   0.762   3.296
 9070WAT      O27751   6.302   0.565   3.570
 9070WAT     H127752   6.321   0.630   3.644
 9070WAT     H227753   6.362   0.485   3.579
 9071WAT      O27754   7.036   1.220   3.495
 9071WAT     H127755   7.027   1.210   3.594
 9071WAT     H227756   7.132   1.213   3.469
 9072WAT      O27757   5.976   1.741   3.422
 9072WAT     H127758   5.885   1.782   3.420
 9072WAT     H227759   5.969   1.647   3.454
 9073WAT      O27760   6.811   0.325   2.311
 9073WAT     H127761   6.876   0.251   2.300
 9073WAT     H227762   6.831   0.375   2.395
 9074WAT      O27763   6.180   0.745   2.514
 9074WAT     H127764   6.230   0.830   2.495
 9074WAT     H227765   6.092   0.747   2.466
 9075WAT      O27766   6.445   1.374   1.878
 9075WAT     H127767   6.399   1.389   1.966
 9075WAT     H227768   6.489   1.459   1.848
 9076WAT      O27769   6.247   1.790   2.815
 9076WAT     H127770   6.201   1.878   2.802
 9076WAT     H227771   6.346   1.802   2.808
 9077WAT      O27772   6.445   0.956   2.723
 9077WAT     H127773   6.499   0.887   2.771
 9077WAT     H227774   6.413   1.025   2.789
 9078WAT      O27775   6.669   0.984   1.949
 9078WAT     H127776   6.646   1.037   1.867
 9078WAT     H227777   6.750   0.928   1.930
 9079WAT      O27778   5.807   1.314   3.706
 9079WAT     H127779   5.742   1.241   3.685
 9079WAT     H227780   5.811   1.328   3.804
 9080WAT      O27781   5.665   1.240   2.515
 9080WAT     H127782   5.664   1.193   2.603
 9080WAT     H227783   5.747   1.212   2.464
 9081WAT      O27784   6.258   1.391   3.486
 9081WAT     H127785   6.180   1.341   3.524
 9081WAT     H227786   6.255   1.486   3.517
 9082WAT      O27787   6.014   0.424   2.382
 9082WAT     H127788   6.044   0.352   2.320
 9082WAT     H227789   5.975   0.384   2.465
 9083WAT      O27790   5.903   0.547   3.142
 9083WAT     H127791   5.941   0.488   3.214
 9083WAT     H227792   5.943   0.521   3.054
 9084WAT      O27793   6.398   1.586   2.549
 9084WAT     H127794   6.430   1.596   2.455
 9084WAT     H227795   6.319   1.524   2.551
 9085WAT      O27796   7.010   0.214   2.974
 9085WAT     H127797   7.062   0.149   3.029
 9085WAT     H227798   6.961   0.277   3.035
 9086WAT      O27799   6.587   0.034   3.016
 9086WAT     H127800   6.524  -0.038   2.985
 9086WAT     H227801   6.680  -0.002   3.016
 9087WAT      O27802   6.356   1.330   2.163
 9087WAT     H127803   6.310   1.243   2.180
 9087WAT     H227804   6.447   1.327   2.204
 9088WAT      O27805   6.204   1.567   3.146
 9088WAT     H127806   6.199   1.649   3.203
 9088WAT     H227807   6.293   1.564   3.101
 9089WAT      O27808   5.625   1.077   2.162
 9089WAT     H127809   5.724   1.066   2.153
 9089WAT     H227810   5.585   0.991   2.194
 9090WAT      O27811   6.461   1.646   2.199
 9090WAT     H127812   6.384   1.611   2.145
 9090WAT     H227813   6.429   1.717   2.261
 9091WAT      O27814   5.816   0.628   3.837
 9091WAT     H127815   5.723   0.626   3.874
 9091WAT     H227816   5.817   0.589   3.745
 9092WAT      O27817   5.811   0.275   4.720
 9092WAT     H127818   5.846   0.258   4.812
 9092WAT     H227819   5.723   0.230   4.708
 9093WAT      O27820   5.605   0.368   4.371
 9093WAT     H127821   5.523   0.411   4.410
 9093WAT     H227822   5.577   0.295   4.308
 9094WAT      O27823   6.155   1.275   4.889
 9094WAT     H127824   6.062   1.268   4.852
 9094WAT     H227825   6.166   1.364   4.933
 9095WAT      O27826   7.141   1.511   4.427
 9095WAT     H127827   7.084   1.495   4.508
 9095WAT     H227828   7.082   1.521   4.347
 9096WAT      O27829   6.721   0.703   4.441
 9096WAT     H127830   6.778   0.781   4.416
 9096WAT     H227831   6.661   0.729   4.517
 9097WAT      O27832   6.354   1.144   4.747
 9097WAT     H127833   6.276   1.161   4.807
 9097WAT     H227834   6.388   1.231   4.711
 9098WAT      O27835   6.436   0.798   5.547
 9098WAT     H127836   6.432   0.874   5.612
 9098WAT     H227837   6.458   0.834   5.456
 9099WAT      O27838   6.271   1.012   4.389
 9099WAT     H127839   6.340   0.996   4.459
 9099WAT     H227840   6.198   1.069   4.427
 9100WAT      O27841   6.272   1.161   5.527
 9100WAT     H127842   6.332   1.240   5.541
 9100WAT     H227843   6.186   1.192   5.486
 9101WAT      O27844   5.921   1.435   4.785
 9101WAT     H127845   5.843   1.404   4.732
 9101WAT     H227846   5.979   1.493   4.728
 9102WAT      O27847   6.024   0.392   5.223
 9102WAT     H127848   6.106   0.336   5.232
 9102WAT     H227849   5.943   0.334   5.227
 9103WAT      O27850   5.817   1.713   4.207
 9103WAT     H127851   5.851   1.790   4.261
 9103WAT     H227852   5.861   1.713   4.117
 9104WAT      O27853   6.713   1.341   5.414
 9104WAT     H127854   6.760   1.341   5.502
 9104WAT     H227855   6.665   1.254   5.403
 9105WAT      O27856   5.816   1.434   4.262
 9105WAT     H127857   5.790   1.530   4.262
 9105WAT     H227858   5.745   1.380   4.307
 9106WAT      O27859   5.826   1.091   4.610
 9106WAT     H127860   5.840   1.007   4.662
 9106WAT     H227861   5.771   1.155   4.665
 9107WAT      O27862   6.206   1.786   5.163
 9107WAT     H127863   6.114   1.769   5.198
 9107WAT     H227864   6.234   1.878   5.189
 9108WAT      O27865   6.192   0.964   3.847
 9108WAT     H127866   6.199   1.048   3.793
 9108WAT     H227867   6.238   0.977   3.935
 9109WAT      O27868   5.708   0.643   4.287
 9109WAT     H127869   5.663   0.555   4.304
 9109WAT     H227870   5.707   0.697   4.371
 9110WAT      O27871   5.613   1.596   3.841
 9110WAT     H127872   5.594   1.500   3.862
 9110WAT     H227873   5.580   1.654   3.916
 9111WAT      O27874   5.699   0.737   5.321
 9111WAT     H127875   5.787   0.724   5.366
 9111WAT     H227876   5.686   0.834   5.299
 9112WAT      O27877   6.199   1.365   4.450
 9112WAT     H127878   6.150   1.278   4.459
 9112WAT     H227879   6.176   1.408   4.363
 9113WAT      O27880   6.879   1.228   5.147
 9113WAT     H127881   6.916   1.155   5.089
 9113WAT     H227882   6.931   1.233   5.232
 9114WAT      O27883   6.395   0.004   4.226
 9114WAT     H127884   6.435   0.095   4.217
 9114WAT     H227885   6.295   0.012   4.232
 9115WAT      O27886   5.783   0.976   4.988
 9115WAT     H127887   5.872   0.931   4.974
 9115WAT     H227888   5.710   0.911   4.969
 9116WAT      O27889   6.773   1.792   5.340
 9116WAT     H127890   6.797   1.852   5.264
 9116WAT     H227891   6.780   1.697   5.310
 9117WAT      O27892   5.903   0.251   5.525
 9117WAT     H127893   5.974   0.322   5.531
 9117WAT     H227894   5.815   0.290   5.553
 9118WAT      O27895   6.184   0.729   3.994
 9118WAT     H127896   6.208   0.798   3.926
 9118WAT     H227897   6.106   0.762   4.048
 9119WAT      O27898   6.867   0.345   4.668
 9119WAT     H127899   6.781   0.295   4.655
 9119WAT     H227900   6.929   0.291   4.724
 9120WAT      O27901   6.393   0.605   5.189
 9120WAT     H127902   6.346   0.602   5.278
 9120WAT     H227903   6.342   0.550   5.123
 9121WAT      O27904   6.980   0.469   5.398
 9121WAT     H127905   6.960   0.512   5.486
 9121WAT     H227906   7.058   0.407   5.407
 9122WAT      O27907   6.559   0.890   5.296
 9122WAT     H127908   6.605   0.806   5.267
 9122WAT     H227909   6.503   0.924   5.221
 9123WAT      O27910   6.577   0.410   4.966
 9123WAT     H127911   6.500   0.444   5.020
 9123WAT     H227912   6.543   0.359   4.887
 9124WAT      O27913   6.627   0.701   4.153
 9124WAT     H127914   6.653   0.697   4.249
 9124WAT     H227915   6.542   0.650   4.139
 9125WAT      O27916   5.662   0.811   4.513
 9125WAT     H127917   5.761   0.799   4.522
 9125WAT     H227918   5.638   0.906   4.534
 9126WAT      O27919   5.716   1.821   5.295
 9126WAT     H127920   5.706   1.806   5.394
 9126WAT     H227921   5.630   1.857   5.259
 9127WAT      O27922   6.451   0.348   3.919
 9127WAT     H127923   6.510   0.411   3.870
 9127WAT     H227924   6.470   0.254   3.890
 9128WAT      O27925   6.948   1.144   4.269
 9128WAT     H127926   7.031   1.115   4.221
 9128WAT     H227927   6.899   1.211   4.213
 9129WAT      O27928   6.136   0.196   4.609
 9129WAT     H127929   6.131   0.191   4.709
 9129WAT     H227930   6.138   0.292   4.580
 9130WAT      O27931   6.594   1.456   4.201
 9130WAT     H127932   6.548   1.528   4.149
 9130WAT     H227933   6.590   1.476   4.299
 9131WAT      O27934   5.937   1.801   4.577
 9131WAT     H127935   5.987   1.715   4.583
 9131WAT     H227936   6.002   1.878   4.574
 9132WAT      O27937   6.813   1.550   5.230
 9132WAT     H127938   6.819   1.473   5.294
 9132WAT     H227939   6.761   1.524   5.150
 9133WAT      O27940   5.907   0.943   3.966
 9133WAT     H127941   5.989   0.982   3.924
 9133WAT     H227942   5.880   0.861   3.917
 9134WAT      O27943   6.047   1.266   5.451
 9134WAT     H127944   5.997   1.267   5.365
 9134WAT     H227945   5.984   1.248   5.527
 9135WAT      O27946   6.697   1.776   3.961
 9135WAT     H127947   6.637   1.714   4.011
 9135WAT     H227948   6.728   1.732   3.876
 9136WAT      O27949   5.788   0.285   5.222
 9136WAT     H127950   5.708   0.345   5.209
 9136WAT     H227951   5.778   0.236   5.308
 9137WAT      O27952   6.050   1.743   4.047
 9137WAT     H127953   6.083   1.782   4.133
 9137WAT     H227954   6.126   1.736   3.982
 9138WAT      O27955   5.835   1.785   4.965
 9138WAT     H127956   5.892   1.720   5.015
 9138WAT     H227957   5.819   1.752   4.872
 9139WAT      O27958   6.526   1.698   4.628
 9139WAT     H127959   6.606   1.641   4.649
 9139WAT     H227960   6.477   1.658   4.551
 9140WAT      O27961   5.968   0.700   4.204
 9140WAT     H127962   6.013   0.610   4.201
 9140WAT     H227963   5.874   0.689   4.237
 9141WAT      O27964   6.200   0.122   3.841
 9141WAT     H127965   6.298   0.100   3.848
 9141WAT     H227966   6.169   0.105   3.748
 9142WAT      O27967   6.367   0.264   5.473
 9142WAT     H127968   6.434   0.203   5.516
 9142WAT     H227969   6.294   0.283   5.538
 9143WAT      O27970   6.474   1.514   4.919
 9143WAT     H127971   6.451   1.489   4.825
 9143WAT     H227972   6.535   1.445   4.958
 9144WAT      O27973   6.389   1.402   4.648
 9144WAT     H127974   6.479   1.416   4.606
 9144WAT     H227975   6.318   1.404   4.577
 9145WAT      O27976   6.508   0.503   4.623
 9145WAT     H127977   6.483   0.494   4.527
 9145WAT     H227978   6.556   0.421   4.654
 9146WAT      O27979   6.125   0.064   4.236
 9146WAT     H127980   6.044   0.065   4.294
 9146WAT     H227981   6.128   0.147   4.181
 9147WAT      O27982   7.020   1.188   3.765
 9147WAT     H127983   7.052   1.112   3.822
 9147WAT     H227984   6.928   1.215   3.795
 9148WAT      O27985   5.883   0.035   3.895
 9148WAT     H127986   5.932   0.119   3.874
 9148WAT     H227987   5.945  -0.030   3.940
 9149WAT      O27988   6.521   0.236   4.204
 9149WAT     H127989   6.473   0.277   4.126
 9149WAT     H227990   6.620   0.234   4.185
 9150WAT      O27991   6.662   0.683   5.188
 9150WAT     H127992   6.582   0.622   5.191
 9150WAT     H227993   6.743   0.630   5.164
 9151WAT      O27994   6.813   1.570   4.517
 9151WAT     H127995   6.834   1.644   4.452
 9151WAT     H227996   6.881   1.570   4.590
 9152WAT      O27997   6.045   1.152   4.465
 9152WAT     H127998   5.974   1.125   4.530
 9152WAT     H227999   6.019   1.124   4.372
 9153WAT      O28000   6.857   1.797   4.315
 9153WAT     H128001   6.901   1.861   4.251
 9153WAT     H228002   6.807   1.849   4.385
 9154WAT      O28003   6.618   0.549   3.740
 9154WAT     H128004   6.577   0.631   3.701
 9154WAT     H228005   6.682   0.575   3.813
 9155WAT      O28006   5.664   0.556   5.110
 9155WAT     H128007   5.756   0.555   5.069
 9155WAT     H228008   5.658   0.630   5.177
 9156WAT      O28009   6.147   0.222   4.871
 9156WAT     H128010   6.185   0.138   4.908
 9156WAT     H228011   6.059   0.241   4.915
 9157WAT      O28012   6.452   0.454   4.366
 9157WAT     H128013   6.420   0.526   4.304
 9157WAT     H228014   6.476   0.373   4.313
 9158WAT      O28015   6.603   0.039   4.477
 9158WAT     H128016   6.531   0.044   4.408
 9158WAT     H228017   6.579  -0.030   4.546
 9159WAT      O28018   6.074   1.385   3.898
 9159WAT     H128019   5.987   1.370   3.945
 9159WAT     H228020   6.057   1.411   3.803
 9160WAT      O28021   6.113   0.256   4.052
 9160WAT     H128022   6.140   0.197   3.977
 9160WAT     H228023   6.113   0.351   4.021
 9161WAT      O28024   6.650   1.347   5.064
 9161WAT     H128025   6.570   1.324   5.119
 9161WAT     H228026   6.733   1.321   5.113
 9162WAT      O28027   6.697   1.195   4.824
 9162WAT     H128028   6.657   1.239   4.905
 9162WAT     H228029   6.656   1.232   4.741
 9163WAT      O28030   6.501   0.089   5.126
 9163WAT     H128031   6.526   0.069   5.031
 9163WAT     H228032   6.573   0.145   5.168
 9164WAT      O28033   6.566   1.116   5.443
 9164WAT     H128034   6.467   1.122   5.453
 9164WAT     H228035   6.589   1.036   5.387
 9165WAT      O28036   6.291   1.050   4.092
 9165WAT     H128037   6.277   1.057   4.191
 9165WAT     H228038   6.375   0.999   4.074
 9166WAT      O28039   5.996   0.813   4.975
 9166WAT     H128040   6.082   0.825   5.025
 9166WAT     H228041   5.954   0.726   5.002
 9167WAT      O28042   6.860   0.386   4.986
 9167WAT     H128043   6.881   0.460   5.050
 9167WAT     H228044   6.771   0.403   4.943
 9168WAT      O28045   5.650   1.564   5.055
 9168WAT     H128046   5.604   1.646   5.021
 9168WAT     H228047   5.748   1.583   5.064
 9169WAT      O28048   5.953   1.100   4.225
 9169WAT     H128049   5.946   1.183   4.169
 9169WAT     H228050   5.957   1.020   4.165
 9170WAT      O28051   6.152   0.537   4.589
 9170WAT     H128052   6.164   0.603   4.515
 9170WAT     H228053   6.198   0.571   4.672
 9171WAT      O28054   6.838   1.348   4.112
 9171WAT     H128055   6.888   1.425   4.152
 9171WAT     H228056   6.743   1.350   4.144
 9172WAT      O28057   6.858   1.445   4.866
 9172WAT     H128058   6.905   1.458   4.953
 9172WAT     H228059   6.792   1.371   4.875
 9173WAT      O28060   5.940   1.510   5.053
 9173WAT     H128061   5.919   1.466   4.966
 9173WAT     H228062   6.037   1.536   5.056
 9174WAT      O28063   5.988   0.751   5.322
 9174WAT     H128064   6.056   0.806   5.275
 9174WAT     H228065   6.028   0.663   5.349
 9175WAT      O28066   6.599   0.105   5.494
 9175WAT     H128067   6.605   0.190   5.442
 9175WAT     H228068   6.631   0.029   5.437
 9176WAT      O28069   6.090   0.050   5.464
 9176WAT     H128070   6.048  -0.007   5.394
 9176WAT     H228071   6.024   0.119   5.496
 9177WAT      O28072   6.159   0.870   4.753
 9177WAT     H128073   6.203   0.959   4.744
 9177WAT     H228074   6.096   0.870   4.830
 9178WAT      O28075   6.946   0.862   4.769
 9178WAT     H128076   6.871   0.862   4.703
 9178WAT     H228077   6.983   0.770   4.778
 9179WAT      O28078   6.795   0.525   3.999
 9179WAT     H128079   6.808   0.441   4.053
 9179WAT     H228080   6.766   0.599   4.059
 9180WAT      O28081   5.893   0.213   4.955
 9180WAT     H128082   5.870   0.250   5.045
 9180WAT     H228083   5.863   0.118   4.949
 9181WAT      O28084   5.623   1.310   5.006
 9181WAT     H128085   5.676   1.261   5.074
 9181WAT     H228086   5.645   1.408   5.011
 9182WAT      O28087   6.318   0.634   4.788
 9182WAT     H128088   6.377   0.608   4.712
 9182WAT     H228089   6.290   0.730   4.777
 9183WAT      O28090   5.893   0.063   4.342
 9183WAT     H128091   5.882   0.157   4.375
 9183WAT     H228092   5.888   0.000   4.419
 9184WAT      O28093   7.208   0.367   4.098
 9184WAT     H128094   7.210   0.291   4.162
 9184WAT     H228095   7.160   0.444   4.138
 9185WAT      O28096   6.609   0.766   4.690
 9185WAT     H128097   6.624   0.787   4.786
 9185WAT     H228098   6.579   0.671   4.681
 9186WAT      O28099   6.566   1.573   5.424
 9186WAT     H128100   6.546   1.617   5.336
 9186WAT     H228101   6.605   1.482   5.408
 9187WAT      O28102   5.936   0.898   5.528
 9187WAT     H128103   6.012   0.942   5.576
 9187WAT     H228104   5.971   0.851   5.446
 9188WAT      O28105   6.889   0.838   3.766
 9188WAT     H128106   6.923   0.745   3.781
 9188WAT     H228107   6.907   0.865   3.671
 9189WAT      O28108   6.654   1.333   4.573
 9189WAT     H128109   6.661   1.249   4.518
 9189WAT     H228110   6.716   1.402   4.537
 9190WAT      O28111   5.905   0.810   4.673
 9190WAT     H128112   5.998   0.846   4.678
 9190WAT     H228113   5.899   0.725   4.725
 9191WAT      O28114   5.925   0.509   4.730
 9191WAT     H128115   5.873   0.426   4.713
 9191WAT     H228116   6.002   0.514   4.666
 9192WAT      O28117   6.724   0.380   5.402
 9192WAT     H128118   6.679   0.443   5.466
 9192WAT     H228119   6.817   0.411   5.385
 9193WAT      O28120   6.746   0.207   5.201
 9193WAT     H128121   6.746   0.271   5.278
 9193WAT     H228122   6.774   0.255   5.118
 9194WAT      O28123   5.594   1.326   3.924
 9194WAT     H128124   5.501   1.347   3.893
 9194WAT     H228125   5.604   1.227   3.937
 9195WAT      O28126   5.674   1.801   4.651
 9195WAT     H128127   5.632   1.715   4.624
 9195WAT     H228128   5.768   1.804   4.617
 9196WAT      O28129   6.090   1.568   4.634
 9196WAT     H128130   6.156   1.642   4.643
 9196WAT     H228131   6.134   1.489   4.592
 9197WAT      O28132   6.588   0.796   4.962
 9197WAT     H128133   6.629   0.764   5.048
 9197WAT     H228134   6.492   0.769   4.959
 9198WAT      O28135   5.626   0.544   4.838
 9198WAT     H128136   5.711   0.511   4.797
 9198WAT     H228137   5.639   0.559   4.936
 9199WAT      O28138   5.775   0.520   5.446
 9199WAT     H128139   5.834   0.480   5.376
 9199WAT     H228140   5.717   0.591   5.405
 9200WAT      O28141   6.401   0.572   4.049
 9200WAT     H128142   6.408   0.483   4.003
 9200WAT     H228143   6.307   0.606   4.041
 9201WAT      O28144   5.838   1.564   5.468
 9201WAT     H128145   5.808   1.621   5.544
 9201WAT     H228146   5.831   1.467   5.494
 9202WAT      O28147   6.257   0.464   4.993
 9202WAT     H128148   6.223   0.375   4.963
 9202WAT     H228149   6.283   0.518   4.913
 9203WAT      O28150   6.516   1.678   5.189
 9203WAT     H128151   6.492   1.660   5.094
 9203WAT     H228152   6.546   1.772   5.199
 9204WAT      O28153   6.059   0.500   3.915
 9204WAT     H128154   6.120   0.580   3.919
 9204WAT     H228155   5.964   0.531   3.922
 9205WAT      O28156   5.745   1.137   5.190
 9205WAT     H128157   5.767   1.076   5.266
 9205WAT     H228158   5.755   1.088   5.104
 9206WAT      O28159   6.933   1.059   4.958
 9206WAT     H128160   6.957   0.996   4.884
 9206WAT     H228161   6.843   1.099   4.940
 9207WAT      O28162   6.888   0.855   4.033
 9207WAT     H128163   6.802   0.824   4.075
 9207WAT     H228164   6.884   0.841   3.934
 9208WAT      O28165   6.838   1.731   4.852
 9208WAT     H128166   6.922   1.736   4.798
 9208WAT     H228167   6.815   1.635   4.870
 9209WAT      O28168   5.669   1.258   4.746
 9209WAT     H128169   5.664   1.257   4.846
 9209WAT     H228170   5.586   1.217   4.708
 9210WAT      O28171   6.274   1.662   5.440
 9210WAT     H128172   6.218   1.743   5.449
 9210WAT     H228173   6.326   1.666   5.354
 9211WAT      O28174   6.974   1.573   4.201
 9211WAT     H128175   7.041   1.585   4.127
 9211WAT     H228176   6.934   1.662   4.224
 9212WAT      O28177   5.716   1.794   5.575
 9212WAT     H128178   5.675   1.720   5.628
 9212WAT     H228179   5.780   1.845   5.633
 9213WAT      O28180   6.866   0.927   4.396
 9213WAT     H128181   6.926   0.846   4.398
 9213WAT     H228182   6.906   0.996   4.336
 9214WAT      O28183   6.416   1.273   5.146
 9214WAT     H128184   6.411   1.306   5.241
 9214WAT     H228185   6.330   1.292   5.100
 9215WAT      O28186   6.258   1.616   3.878
 9215WAT     H128187   6.267   1.626   3.779
 9215WAT     H228188   6.218   1.527   3.899
 9216WAT      O28189   5.849   0.326   4.444
 9216WAT     H128190   5.770   0.377   4.410
 9216WAT     H228191   5.840   0.311   4.542
 9217WAT      O28192   6.780   1.612   3.755
 9217WAT     H128193   6.786   1.519   3.792
 9217WAT     H228194   6.721   1.612   3.675
 9218WAT      O28195   6.408   1.002   5.096
 9218WAT     H128196   6.448   1.001   5.004
 9218WAT     H228197   6.418   1.094   5.136
 9219WAT      O28198   6.502   0.910   4.015
 9219WAT     H128199   6.565   0.948   3.947
 9219WAT     H228200   6.542   0.827   4.054
 9220WAT      O28201   5.958   1.288   5.214
 9220WAT     H128202   5.945   1.381   5.180
 9220WAT     H228203   5.874   1.236   5.201
 9221WAT      O28204   6.625   1.098   4.420
 9221WAT     H128205   6.555   1.051   4.474
 9221WAT     H228206   6.684   1.030   4.377
 9222WAT      O28207   6.600   0.236   4.695
 9222WAT     H128208   6.592   0.200   4.602
 9222WAT     H228209   6.598   0.160   4.760
 9223WAT      O28210   6.176   1.487   4.215
 9223WAT     H128211   6.218   1.429   4.145
 9223WAT     H228212   6.132   1.566   4.171
 9224WAT      O28213   5.841   1.348   4.014
 9224WAT     H128214   5.745   1.349   3.987
 9224WAT     H228215   5.853   1.401   4.098
 9225WAT      O28216   5.691   1.013   5.450
 9225WAT     H128217   5.614   0.980   5.504
 9225WAT     H228218   5.776   0.983   5.492
 9226WAT      O28219   6.258   0.203   5.213
 9226WAT     H128220   6.348   0.187   5.173
 9226WAT     H228221   6.266   0.208   5.312
 9227WAT      O28222   5.661   0.345   3.757
 9227WAT     H128223   5.569   0.317   3.728
 9227WAT     H228224   5.692   0.422   3.701
 9228WAT      O28225   5.658   0.166   4.042
 9228WAT     H128226   5.641   0.249   3.988
 9228WAT     H228227   5.748   0.129   4.020
 9229WAT      O28228   6.199   0.842   5.155
 9229WAT     H128229   6.255   0.923   5.138
 9229WAT     H228230   6.258   0.762   5.158
 9230WAT      O28231   6.302   0.565   5.432
 9230WAT     H128232   6.321   0.630   5.506
 9230WAT     H228233   6.362   0.485   5.441
 9231WAT      O28234   7.036   1.220   5.357
 9231WAT     H128235   7.027   1.210   5.456
 9231WAT     H228236   7.132   1.213   5.331
 9232WAT      O28237   5.976   1.741   5.284
 9232WAT     H128238   5.885   1.782   5.282
 9232WAT     H228239   5.969   1.647   5.316
 9233WAT      O28240   6.811   0.325   4.173
 9233WAT     H128241   6.876   0.251   4.162
 9233WAT     H228242   6.831   0.375   4.257
 9234WAT      O28243   6.180   0.745   4.376
 9234WAT     H128244   6.230   0.830   4.357
 9234WAT     H228245   6.092   0.747   4.328
 9235WAT      O28246   6.445   1.374   3.740
 9235WAT     H128247   6.399   1.389   3.828
 9235WAT     H228248   6.489   1.459   3.710
 9236WAT      O28249   6.247   1.790   4.677
 9236WAT     H128250   6.201   1.878   4.664
 9236WAT     H228251   6.346   1.802   4.670
 9237WAT      O28252   6.445   0.956   4.585
 9237WAT     H128253   6.499   0.887   4.633
 9237WAT     H228254   6.413   1.025   4.651
 9238WAT      O28255   6.669   0.984   3.811
 9238WAT     H128256   6.646   1.037   3.729
 9238WAT     H228257   6.750   0.928   3.792
 9239WAT      O28258   5.807   1.314   5.568
 9239WAT     H128259   5.742   1.241   5.547
 9239WAT     H228260   5.811   1.328   5.666
 9240WAT      O28261   5.665   1.240   4.377
 9240WAT     H128262   5.664   1.193   4.465
 9240WAT     H228263   5.747   1.212   4.326
 9241WAT      O28264   6.258   1.391   5.348
 9241WAT     H128265   6.180   1.341   5.386
 9241WAT     H228266   6.255   1.486   5.379
 9242WAT      O28267   6.014   0.424   4.244
 9242WAT     H128268   6.044   0.352   4.182
 9242WAT     H228269   5.975   0.384   4.327
 9243WAT      O28270   5.903   0.547   5.004
 9243WAT     H128271   5.941   0.488   5.076
 9243WAT     H228272   5.943   0.521   4.916
 9244WAT      O28273   6.398   1.586   4.411
 9244WAT     H128274   6.430   1.596   4.317
 9244WAT     H228275   6.319   1.524   4.413
 9245WAT      O28276   7.010   0.214   4.836
 9245WAT     H128277   7.062   0.149   4.891
 9245WAT     H228278   6.961   0.277   4.897
 9246WAT      O28279   6.587   0.034   4.878
 9246WAT     H128280   6.524  -0.038   4.847
 9246WAT     H228281   6.680  -0.002   4.878
 9247WAT      O28282   6.356   1.330   4.025
 9247WAT     H128283   6.310   1.243   4.042
 9247WAT     H228284   6.447   1.327   4.066
 9248WAT      O28285   6.204   1.567   5.008
 9248WAT     H128286   6.199   1.649   5.065
 9248WAT     H228287   6.293   1.564   4.963
 9249WAT      O28288   5.625   1.077   4.024
 9249WAT     H128289   5.724   1.066   4.015
 9249WAT     H228290   5.585   0.991   4.056
 9250WAT      O28291   6.461   1.646   4.061
 9250WAT     H128292   6.384   1.611   4.007
 9250WAT     H228293   6.429   1.717   4.123
 9251WAT      O28294   5.816   0.628   5.699
 9251WAT     H128295   5.723   0.626   5.736
 9251WAT     H228296   5.817   0.589   5.607
 9252WAT      O28297   5.811   0.275   6.582
 9252WAT     H128298   5.846   0.258   6.674
 9252WAT     H228299   5.723   0.230   6.570
 9253WAT      O28300   5.605   0.368   6.233
 9253WAT     H128301   5.523   0.411   6.272
 9253WAT     H228302   5.577   0.295   6.170
 9254WAT      O28303   6.155   1.275   6.751
 9254WAT     H128304   6.062   1.268   6.714
 9254WAT     H228305   6.166   1.364   6.795
 9255WAT      O28306   7.141   1.511   6.289
 9255WAT     H128307   7.084   1.495   6.370
 9255WAT     H228308   7.082   1.521   6.209
 9256WAT      O28309   6.721   0.703   6.303
 9256WAT     H128310   6.778   0.781   6.278
 9256WAT     H228311   6.661   0.729   6.379
 9257WAT      O28312   6.354   1.144   6.609
 9257WAT     H128313   6.276   1.161   6.669
 9257WAT     H228314   6.388   1.231   6.573
 9258WAT      O28315   6.271   1.012   6.251
 9258WAT     H128316   6.340   0.996   6.321
 9258WAT     H228317   6.198   1.069   6.289
 9259WAT      O28318   5.921   1.435   6.647
 9259WAT     H128319   5.843   1.404   6.594
 9259WAT     H228320   5.979   1.493   6.590
 9260WAT      O28321   5.817   1.713   6.069
 9260WAT     H128322   5.851   1.790   6.123
 9260WAT     H228323   5.861   1.713   5.979
 9261WAT      O28324   5.816   1.434   6.124
 9261WAT     H128325   5.790   1.530   6.124
 9261WAT     H228326   5.745   1.380   6.169
 9262WAT      O28327   5.826   1.091   6.472
 9262WAT     H128328   5.840   1.007   6.524
 9262WAT     H228329   5.771   1.155   6.527
 9263WAT      O28330   6.206   1.786   7.025
 9263WAT     H128331   6.114   1.769   7.060
 9263WAT     H228332   6.234   1.878   7.051
 9264WAT      O28333   6.192   0.964   5.709
 9264WAT     H128334   6.199   1.048   5.655
 9264WAT     H228335   6.238   0.977   5.797
 9265WAT      O28336   5.708   0.643   6.149
 9265WAT     H128337   5.663   0.555   6.166
 9265WAT     H228338   5.707   0.697   6.233
 9266WAT      O28339   5.613   1.596   5.703
 9266WAT     H128340   5.594   1.500   5.724
 9266WAT     H228341   5.580   1.654   5.778
 9267WAT      O28342   6.199   1.365   6.312
 9267WAT     H128343   6.150   1.278   6.321
 9267WAT     H228344   6.176   1.408   6.225
 9268WAT      O28345   6.879   1.228   7.009
 9268WAT     H128346   6.916   1.155   6.951
 9268WAT     H228347   6.931   1.233   7.094
 9269WAT      O28348   6.395   0.004   6.088
 9269WAT     H128349   6.435   0.095   6.079
 9269WAT     H228350   6.295   0.012   6.094
 9270WAT      O28351   5.783   0.976   6.850
 9270WAT     H128352   5.872   0.931   6.836
 9270WAT     H228353   5.710   0.911   6.831
 9271WAT      O28354   6.184   0.729   5.856
 9271WAT     H128355   6.208   0.798   5.788
 9271WAT     H228356   6.106   0.762   5.910
 9272WAT      O28357   6.867   0.345   6.530
 9272WAT     H128358   6.781   0.295   6.517
 9272WAT     H228359   6.929   0.291   6.586
 9273WAT      O28360   6.393   0.605   7.051
 9273WAT     H128361   6.346   0.602   7.140
 9273WAT     H228362   6.342   0.550   6.985
 9274WAT      O28363   6.577   0.410   6.828
 9274WAT     H128364   6.500   0.444   6.882
 9274WAT     H228365   6.543   0.359   6.749
 9275WAT      O28366   6.627   0.701   6.015
 9275WAT     H128367   6.653   0.697   6.111
 9275WAT     H228368   6.542   0.650   6.001
 9276WAT      O28369   5.662   0.811   6.375
 9276WAT     H128370   5.761   0.799   6.384
 9276WAT     H228371   5.638   0.906   6.396
 9277WAT      O28372   5.716   1.821   7.157
 9277WAT     H128373   5.706   1.806   7.256
 9277WAT     H228374   5.630   1.857   7.121
 9278WAT      O28375   6.451   0.348   5.781
 9278WAT     H128376   6.510   0.411   5.732
 9278WAT     H228377   6.470   0.254   5.752
 9279WAT      O28378   6.948   1.144   6.131
 9279WAT     H128379   7.031   1.115   6.083
 9279WAT     H228380   6.899   1.211   6.075
 9280WAT      O28381   6.136   0.196   6.471
 9280WAT     H128382   6.131   0.191   6.571
 9280WAT     H228383   6.138   0.292   6.442
 9281WAT      O28384   6.594   1.456   6.063
 9281WAT     H128385   6.548   1.528   6.011
 9281WAT     H228386   6.590   1.476   6.161
 9282WAT      O28387   5.937   1.801   6.439
 9282WAT     H128388   5.987   1.715   6.445
 9282WAT     H228389   6.002   1.878   6.436
 9283WAT      O28390   5.907   0.943   5.828
 9283WAT     H128391   5.989   0.982   5.786
 9283WAT     H228392   5.880   0.861   5.779
 9284WAT      O28393   6.697   1.776   5.823
 9284WAT     H128394   6.637   1.714   5.873
 9284WAT     H228395   6.728   1.732   5.738
 9285WAT      O28396   6.050   1.743   5.909
 9285WAT     H128397   6.083   1.782   5.995
 9285WAT     H228398   6.126   1.736   5.844
 9286WAT      O28399   5.835   1.785   6.827
 9286WAT     H128400   5.892   1.720   6.877
 9286WAT     H228401   5.819   1.752   6.734
 9287WAT      O28402   6.526   1.698   6.490
 9287WAT     H128403   6.606   1.641   6.511
 9287WAT     H228404   6.477   1.658   6.413
 9288WAT      O28405   5.968   0.700   6.066
 9288WAT     H128406   6.013   0.610   6.063
 9288WAT     H228407   5.874   0.689   6.099
 9289WAT      O28408   6.200   0.122   5.703
 9289WAT     H128409   6.298   0.100   5.710
 9289WAT     H228410   6.169   0.105   5.610
 9290WAT      O28411   6.474   1.514   6.781
 9290WAT     H128412   6.451   1.489   6.687
 9290WAT     H228413   6.535   1.445   6.820
 9291WAT      O28414   6.389   1.402   6.510
 9291WAT     H128415   6.479   1.416   6.468
 9291WAT     H228416   6.318   1.404   6.439
 9292WAT      O28417   6.508   0.503   6.485
 9292WAT     H128418   6.483   0.494   6.389
 9292WAT     H228419   6.556   0.421   6.516
 9293WAT      O28420   6.125   0.064   6.098
 9293WAT     H128421   6.044   0.065   6.156
 9293WAT     H228422   6.128   0.147   6.043
 9294WAT      O28423   7.020   1.188   5.627
 9294WAT     H128424   7.052   1.112   5.684
 9294WAT     H228425   6.928   1.215   5.657
 9295WAT      O28426   5.883   0.035   5.757
 9295WAT     H128427   5.932   0.119   5.736
 9295WAT     H228428   5.945  -0.030   5.802
 9296WAT      O28429   6.521   0.236   6.066
 9296WAT     H128430   6.473   0.277   5.988
 9296WAT     H228431   6.620   0.234   6.047
 9297WAT      O28432   6.813   1.570   6.379
 9297WAT     H128433   6.834   1.644   6.314
 9297WAT     H228434   6.881   1.570   6.452
 9298WAT      O28435   6.045   1.152   6.327
 9298WAT     H128436   5.974   1.125   6.392
 9298WAT     H228437   6.019   1.124   6.234
 9299WAT      O28438   6.857   1.797   6.177
 9299WAT     H128439   6.901   1.861   6.113
 9299WAT     H228440   6.807   1.849   6.247
 9300WAT      O28441   6.618   0.549   5.602
 9300WAT     H128442   6.577   0.631   5.563
 9300WAT     H228443   6.682   0.575   5.675
 9301WAT      O28444   6.147   0.222   6.733
 9301WAT     H128445   6.185   0.138   6.770
 9301WAT     H228446   6.059   0.241   6.777
 9302WAT      O28447   6.452   0.454   6.228
 9302WAT     H128448   6.420   0.526   6.166
 9302WAT     H228449   6.476   0.373   6.175
 9303WAT      O28450   6.603   0.039   6.339
 9303WAT     H128451   6.531   0.044   6.270
 9303WAT     H228452   6.579  -0.030   6.408
 9304WAT      O28453   6.074   1.385   5.760
 9304WAT     H128454   5.987   1.370   5.807
 9304WAT     H228455   6.057   1.411   5.665
 9305WAT      O28456   6.113   0.256   5.914
 9305WAT     H128457   6.140   0.197   5.839
 9305WAT     H228458   6.113   0.351   5.883
 9306WAT      O28459   7.178   1.629   7.211
 9306WAT     H128460   7.205   1.663   7.121
 9306WAT     H228461   7.257   1.591   7.257
 9307WAT      O28462   6.697   1.195   6.686
 9307WAT     H128463   6.657   1.239   6.767
 9307WAT     H228464   6.656   1.232   6.603
 9308WAT      O28465   6.291   1.050   5.954
 9308WAT     H128466   6.277   1.057   6.053
 9308WAT     H228467   6.375   0.999   5.936
 9309WAT      O28468   5.996   0.813   6.837
 9309WAT     H128469   6.082   0.825   6.887
 9309WAT     H228470   5.954   0.726   6.864
 9310WAT      O28471   6.860   0.386   6.848
 9310WAT     H128472   6.881   0.460   6.912
 9310WAT     H228473   6.771   0.403   6.805
 9311WAT      O28474   5.650   1.564   6.917
 9311WAT     H128475   5.604   1.646   6.883
 9311WAT     H228476   5.748   1.583   6.926
 9312WAT      O28477   5.953   1.100   6.087
 9312WAT     H128478   5.946   1.183   6.031
 9312WAT     H228479   5.957   1.020   6.027
 9313WAT      O28480   6.152   0.537   6.451
 9313WAT     H128481   6.164   0.603   6.377
 9313WAT     H228482   6.198   0.571   6.534
 9314WAT      O28483   6.838   1.348   5.974
 9314WAT     H128484   6.888   1.425   6.014
 9314WAT     H228485   6.743   1.350   6.006
 9315WAT      O28486   6.858   1.445   6.728
 9315WAT     H128487   6.905   1.458   6.815
 9315WAT     H228488   6.792   1.371   6.737
 9316WAT      O28489   5.940   1.510   6.915
 9316WAT     H128490   5.919   1.466   6.828
 9316WAT     H228491   6.037   1.536   6.918
 9317WAT      O28492   6.159   0.870   6.615
 9317WAT     H128493   6.203   0.959   6.606
 9317WAT     H228494   6.096   0.870   6.692
 9318WAT      O28495   6.946   0.862   6.631
 9318WAT     H128496   6.871   0.862   6.565
 9318WAT     H228497   6.983   0.770   6.640
 9319WAT      O28498   6.795   0.525   5.861
 9319WAT     H128499   6.808   0.441   5.915
 9319WAT     H228500   6.766   0.599   5.921
 9320WAT      O28501   5.893   0.213   6.817
 9320WAT     H128502   5.870   0.250   6.907
 9320WAT     H228503   5.863   0.118   6.811
 9321WAT      O28504   5.623   1.310   6.868
 9321WAT     H128505   5.676   1.261   6.936
 9321WAT     H228506   5.645   1.408   6.873
 9322WAT      O28507   6.318   0.634   6.650
 9322WAT     H128508   6.377   0.608   6.574
 9322WAT     H228509   6.290   0.730   6.639
 9323WAT      O28510   5.893   0.063   6.204
 9323WAT     H128511   5.882   0.157   6.237
 9323WAT     H228512   5.888   0.000   6.281
 9324WAT      O28513   7.208   0.367   5.960
 9324WAT     H128514   7.210   0.291   6.024
 9324WAT     H228515   7.160   0.444   6.000
 9325WAT      O28516   6.609   0.766   6.552
 9325WAT     H128517   6.624   0.787   6.648
 9325WAT     H228518   6.579   0.671   6.543
 9326WAT      O28519   6.889   0.838   5.628
 9326WAT     H128520   6.923   0.745   5.643
 9326WAT     H228521   6.907   0.865   5.533
 9327WAT      O28522   6.654   1.333   6.435
 9327WAT     H128523   6.661   1.249   6.380
 9327WAT     H228524   6.716   1.402   6.399
 9328WAT      O28525   5.905   0.810   6.535
 9328WAT     H128526   5.998   0.846   6.540
 9328WAT     H228527   5.899   0.725   6.587
 9329WAT      O28528   5.925   0.509   6.592
 9329WAT     H128529   5.873   0.426   6.575
 9329WAT     H228530   6.002   0.514   6.528
 9330WAT      O28531   6.746   0.207   7.063
 9330WAT     H128532   6.746   0.271   7.140
 9330WAT     H228533   6.774   0.255   6.980
 9331WAT      O28534   5.594   1.326   5.786
 9331WAT     H128535   5.501   1.347   5.755
 9331WAT     H228536   5.604   1.227   5.799
 9332WAT      O28537   5.674   1.801   6.513
 9332WAT     H128538   5.632   1.715   6.486
 9332WAT     H228539   5.768   1.804   6.479
 9333WAT      O28540   6.090   1.568   6.496
 9333WAT     H128541   6.156   1.642   6.505
 9333WAT     H228542   6.134   1.489   6.454
 9334WAT      O28543   6.588   0.796   6.824
 9334WAT     H128544   6.629   0.764   6.910
 9334WAT     H228545   6.492   0.769   6.821
 9335WAT      O28546   5.626   0.544   6.700
 9335WAT     H128547   5.711   0.511   6.659
 9335WAT     H228548   5.639   0.559   6.798
 9336WAT      O28549   6.401   0.572   5.911
 9336WAT     H128550   6.408   0.483   5.865
 9336WAT     H228551   6.307   0.606   5.903
 9337WAT      O28552   6.257   0.464   6.855
 9337WAT     H128553   6.223   0.375   6.825
 9337WAT     H228554   6.283   0.518   6.775
 9338WAT      O28555   6.516   1.678   7.051
 9338WAT     H128556   6.492   1.660   6.956
 9338WAT     H228557   6.546   1.772   7.061
 9339WAT      O28558   6.059   0.500   5.777
 9339WAT     H128559   6.120   0.580   5.781
 9339WAT     H228560   5.964   0.531   5.784
 9340WAT      O28561   5.745   1.137   7.052
 9340WAT     H128562   5.767   1.076   7.128
 9340WAT     H228563   5.755   1.088   6.966
 9341WAT      O28564   6.933   1.059   6.820
 9341WAT     H128565   6.957   0.996   6.746
 9341WAT     H228566   6.843   1.099   6.802
 9342WAT      O28567   6.888   0.855   5.895
 9342WAT     H128568   6.802   0.824   5.937
 9342WAT     H228569   6.884   0.841   5.796
 9343WAT      O28570   6.838   1.731   6.714
 9343WAT     H128571   6.922   1.736   6.660
 9343WAT     H228572   6.815   1.635   6.732
 9344WAT      O28573   5.669   1.258   6.608
 9344WAT     H128574   5.664   1.257   6.708
 9344WAT     H228575   5.586   1.217   6.570
 9345WAT      O28576   6.974   1.573   6.063
 9345WAT     H128577   7.041   1.585   5.989
 9345WAT     H228578   6.934   1.662   6.086
 9346WAT      O28579   6.866   0.927   6.258
 9346WAT     H128580   6.926   0.846   6.260
 9346WAT     H228581   6.906   0.996   6.198
 9347WAT      O28582   6.258   1.616   5.740
 9347WAT     H128583   6.267   1.626   5.641
 9347WAT     H228584   6.218   1.527   5.761
 9348WAT      O28585   5.849   0.326   6.306
 9348WAT     H128586   5.770   0.377   6.272
 9348WAT     H228587   5.840   0.311   6.404
 9349WAT      O28588   6.780   1.612   5.617
 9349WAT     H128589   6.786   1.519   5.654
 9349WAT     H228590   6.721   1.612   5.537
 9350WAT      O28591   6.408   1.002   6.958
 9350WAT     H128592   6.448   1.001   6.866
 9350WAT     H228593   6.418   1.094   6.998
 9351WAT      O28594   6.502   0.910   5.877
 9351WAT     H128595   6.565   0.948   5.809
 9351WAT     H228596   6.542   0.827   5.916
 9352WAT      O28597   6.625   1.098   6.282
 9352WAT     H128598   6.555   1.051   6.336
 9352WAT     H228599   6.684   1.030   6.239
 9353WAT      O28600   6.600   0.236   6.557
 9353WAT     H128601   6.592   0.200   6.464
 9353WAT     H228602   6.598   0.160   6.622
 9354WAT      O28603   6.176   1.487   6.077
 9354WAT     H128604   6.218   1.429   6.007
 9354WAT     H228605   6.132   1.566   6.033
 9355WAT      O28606   5.841   1.348   5.876
 9355WAT     H128607   5.745   1.349   5.849
 9355WAT     H228608   5.853   1.401   5.960
 9356WAT      O28609   5.661   0.345   5.619
 9356WAT     H128610   5.569   0.317   5.590
 9356WAT     H228611   5.692   0.422   5.563
 9357WAT      O28612   5.658   0.166   5.904
 9357WAT     H128613   5.641   0.249   5.850
 9357WAT     H228614   5.748   0.129   5.882
 9358WAT      O28615   5.976   1.741   7.146
 9358WAT     H128616   5.885   1.782   7.144
 9358WAT     H228617   5.969   1.647   7.178
 9359WAT      O28618   6.811   0.325   6.035
 9359WAT     H128619   6.876   0.251   6.024
 9359WAT     H228620   6.831   0.375   6.119
 9360WAT      O28621   6.180   0.745   6.238
 9360WAT     H128622   6.230   0.830   6.219
 9360WAT     H228623   6.092   0.747   6.190
 9361WAT      O28624   6.445   1.374   5.602
 9361WAT     H128625   6.399   1.389   5.690
 9361WAT     H228626   6.489   1.459   5.572
 9362WAT      O28627   6.247   1.790   6.539
 9362WAT     H128628   6.201   1.878   6.526
 9362WAT     H228629   6.346   1.802   6.532
 9363WAT      O28630   6.445   0.956   6.447
 9363WAT     H128631   6.499   0.887   6.495
 9363WAT     H228632   6.413   1.025   6.513
 9364WAT      O28633   6.669   0.984   5.673
 9364WAT     H128634   6.646   1.037   5.591
 9364WAT     H228635   6.750   0.928   5.654
 9365WAT      O28636   5.665   1.240   6.239
 9365WAT     H128637   5.664   1.193   6.327
 9365WAT     H228638   5.747   1.212   6.188
 9366WAT      O28639   6.014   0.424   6.106
 9366WAT     H128640   6.044   0.352   6.044
 9366WAT     H228641   5.975   0.384   6.189
 9367WAT      O28642   5.903   0.547   6.866
 9367WAT     H128643   5.941   0.488   6.938
 9367WAT     H228644   5.943   0.521   6.778
 9368WAT      O28645   6.398   1.586   6.273
 9368WAT     H128646   6.430   1.596   6.179
 9368WAT     H228647   6.319   1.524   6.275
 9369WAT      O28648   7.010   0.214   6.698
 9369WAT     H128649   7.062   0.149   6.753
 9369WAT     H228650   6.961   0.277   6.759
 9370WAT      O28651   6.587   0.034   6.740
 9370WAT     H128652   6.524  -0.038   6.709
 9370WAT     H228653   6.680  -0.002   6.740
 9371WAT      O28654   6.356   1.330   5.887
 9371WAT     H128655   6.310   1.243   5.904
 9371WAT     H228656   6.447   1.327   5.928
 9372WAT      O28657   6.204   1.567   6.870
 9372WAT     H128658   6.199   1.649   6.927
 9372WAT     H228659   6.293   1.564   6.825
 9373WAT      O28660   5.625   1.077   5.886
 9373WAT     H128661   5.724   1.066   5.877
 9373WAT     H228662   5.585   0.991   5.918
 9374WAT      O28663   6.461   1.646   5.923
 9374WAT     H128664   6.384   1.611   5.869
 9374WAT     H228665   6.429   1.717   5.985
 9375WAT      O28666   5.816   2.490   0.113
 9375WAT     H128667   5.723   2.488   0.150
 9375WAT     H228668   5.817   2.451   0.021
 9376WAT      O28669   5.811   2.137   0.996
 9376WAT     H128670   5.846   2.120   1.088
 9376WAT     H228671   5.723   2.092   0.984
 9377WAT      O28672   5.605   2.230   0.647
 9377WAT     H128673   5.523   2.273   0.686
 9377WAT     H228674   5.577   2.157   0.584
 9378WAT      O28675   6.155   3.137   1.165
 9378WAT     H128676   6.062   3.130   1.128
 9378WAT     H228677   6.166   3.226   1.209
 9379WAT      O28678   7.141   3.373   0.703
 9379WAT     H128679   7.084   3.357   0.784
 9379WAT     H228680   7.082   3.383   0.623
 9380WAT      O28681   6.721   2.565   0.717
 9380WAT     H128682   6.778   2.643   0.692
 9380WAT     H228683   6.661   2.591   0.793
 9381WAT      O28684   6.354   3.006   1.023
 9381WAT     H128685   6.276   3.023   1.083
 9381WAT     H228686   6.388   3.093   0.987
 9382WAT      O28687   6.436   2.660   1.823
 9382WAT     H128688   6.432   2.736   1.888
 9382WAT     H228689   6.458   2.696   1.732
 9383WAT      O28690   6.271   2.874   0.665
 9383WAT     H128691   6.340   2.858   0.735
 9383WAT     H228692   6.198   2.931   0.703
 9384WAT      O28693   6.272   3.023   1.803
 9384WAT     H128694   6.332   3.102   1.817
 9384WAT     H228695   6.186   3.054   1.762
 9385WAT      O28696   5.921   3.297   1.061
 9385WAT     H128697   5.843   3.266   1.008
 9385WAT     H228698   5.979   3.355   1.004
 9386WAT      O28699   6.024   2.254   1.499
 9386WAT     H128700   6.106   2.198   1.508
 9386WAT     H228701   5.943   2.196   1.503
 9387WAT      O28702   5.817   3.575   0.483
 9387WAT     H128703   5.851   3.652   0.537
 9387WAT     H228704   5.861   3.575   0.393
 9388WAT      O28705   6.713   3.203   1.690
 9388WAT     H128706   6.760   3.203   1.778
 9388WAT     H228707   6.665   3.116   1.679
 9389WAT      O28708   5.816   3.296   0.538
 9389WAT     H128709   5.790   3.392   0.538
 9389WAT     H228710   5.745   3.242   0.583
 9390WAT      O28711   5.826   2.953   0.886
 9390WAT     H128712   5.840   2.869   0.938
 9390WAT     H228713   5.771   3.017   0.941
 9391WAT      O28714   6.206   3.648   1.439
 9391WAT     H128715   6.114   3.631   1.474
 9391WAT     H228716   6.234   3.740   1.465
 9392WAT      O28717   6.192   2.826   0.123
 9392WAT     H128718   6.199   2.910   0.069
 9392WAT     H228719   6.238   2.839   0.211
 9393WAT      O28720   5.708   2.505   0.563
 9393WAT     H128721   5.663   2.417   0.580
 9393WAT     H228722   5.707   2.559   0.647
 9394WAT      O28723   5.613   3.458   0.117
 9394WAT     H128724   5.594   3.362   0.138
 9394WAT     H228725   5.580   3.516   0.192
 9395WAT      O28726   5.699   2.599   1.597
 9395WAT     H128727   5.787   2.586   1.642
 9395WAT     H228728   5.686   2.696   1.575
 9396WAT      O28729   6.199   3.227   0.726
 9396WAT     H128730   6.150   3.140   0.735
 9396WAT     H228731   6.176   3.270   0.639
 9397WAT      O28732   6.879   3.090   1.423
 9397WAT     H128733   6.916   3.017   1.365
 9397WAT     H228734   6.931   3.095   1.508
 9398WAT      O28735   6.395   1.866   0.502
 9398WAT     H128736   6.435   1.957   0.493
 9398WAT     H228737   6.295   1.874   0.508
 9399WAT      O28738   5.783   2.838   1.264
 9399WAT     H128739   5.872   2.793   1.250
 9399WAT     H228740   5.710   2.773   1.245
 9400WAT      O28741   6.773   3.654   1.616
 9400WAT     H128742   6.797   3.714   1.540
 9400WAT     H228743   6.780   3.559   1.586
 9401WAT      O28744   5.903   2.113   1.801
 9401WAT     H128745   5.974   2.184   1.807
 9401WAT     H228746   5.815   2.152   1.829
 9402WAT      O28747   6.184   2.591   0.270
 9402WAT     H128748   6.208   2.660   0.202
 9402WAT     H228749   6.106   2.624   0.324
 9403WAT      O28750   6.867   2.207   0.944
 9403WAT     H128751   6.781   2.157   0.931
 9403WAT     H228752   6.929   2.153   1.000
 9404WAT      O28753   6.393   2.467   1.465
 9404WAT     H128754   6.346   2.464   1.554
 9404WAT     H228755   6.342   2.412   1.399
 9405WAT      O28756   6.980   2.331   1.674
 9405WAT     H128757   6.960   2.374   1.762
 9405WAT     H228758   7.058   2.269   1.683
 9406WAT      O28759   6.559   2.752   1.572
 9406WAT     H128760   6.605   2.668   1.543
 9406WAT     H228761   6.503   2.786   1.497
 9407WAT      O28762   6.577   2.272   1.242
 9407WAT     H128763   6.500   2.306   1.296
 9407WAT     H228764   6.543   2.221   1.163
 9408WAT      O28765   6.627   2.563   0.429
 9408WAT     H128766   6.653   2.559   0.525
 9408WAT     H228767   6.542   2.512   0.415
 9409WAT      O28768   5.662   2.673   0.789
 9409WAT     H128769   5.761   2.661   0.798
 9409WAT     H228770   5.638   2.768   0.810
 9410WAT      O28771   5.716   3.683   1.571
 9410WAT     H128772   5.706   3.668   1.670
 9410WAT     H228773   5.630   3.719   1.535
 9411WAT      O28774   6.451   2.210   0.195
 9411WAT     H128775   6.510   2.273   0.146
 9411WAT     H228776   6.470   2.116   0.166
 9412WAT      O28777   6.948   3.006   0.545
 9412WAT     H128778   7.031   2.977   0.497
 9412WAT     H228779   6.899   3.073   0.489
 9413WAT      O28780   6.136   2.058   0.885
 9413WAT     H128781   6.131   2.053   0.985
 9413WAT     H228782   6.138   2.154   0.856
 9414WAT      O28783   6.594   3.318   0.477
 9414WAT     H128784   6.548   3.390   0.425
 9414WAT     H228785   6.590   3.338   0.575
 9415WAT      O28786   5.937   3.663   0.853
 9415WAT     H128787   5.987   3.577   0.859
 9415WAT     H228788   6.002   3.740   0.850
 9416WAT      O28789   6.813   3.412   1.506
 9416WAT     H128790   6.819   3.335   1.570
 9416WAT     H228791   6.761   3.386   1.426
 9417WAT      O28792   5.907   2.805   0.242
 9417WAT     H128793   5.989   2.844   0.200
 9417WAT     H228794   5.880   2.723   0.193
 9418WAT      O28795   6.047   3.128   1.727
 9418WAT     H128796   5.997   3.129   1.641
 9418WAT     H228797   5.984   3.110   1.803
 9419WAT      O28798   6.697   3.638   0.237
 9419WAT     H128799   6.637   3.576   0.287
 9419WAT     H228800   6.728   3.594   0.152
 9420WAT      O28801   5.788   2.147   1.498
 9420WAT     H128802   5.708   2.207   1.485
 9420WAT     H228803   5.778   2.098   1.584
 9421WAT      O28804   7.218   3.239   0.081
 9421WAT     H128805   7.186   3.333   0.071
 9421WAT     H228806   7.142   3.176   0.069
 9422WAT      O28807   6.050   3.605   0.323
 9422WAT     H128808   6.083   3.644   0.409
 9422WAT     H228809   6.126   3.598   0.258
 9423WAT      O28810   5.835   3.647   1.241
 9423WAT     H128811   5.892   3.582   1.291
 9423WAT     H228812   5.819   3.614   1.148
 9424WAT      O28813   6.526   3.560   0.904
 9424WAT     H128814   6.606   3.503   0.925
 9424WAT     H228815   6.477   3.520   0.827
 9425WAT      O28816   5.968   2.562   0.480
 9425WAT     H128817   6.013   2.472   0.477
 9425WAT     H228818   5.874   2.551   0.513
 9426WAT      O28819   6.367   2.126   1.749
 9426WAT     H128820   6.434   2.065   1.792
 9426WAT     H228821   6.294   2.145   1.814
 9427WAT      O28822   6.474   3.376   1.195
 9427WAT     H128823   6.451   3.351   1.101
 9427WAT     H228824   6.535   3.307   1.234
 9428WAT      O28825   6.389   3.264   0.924
 9428WAT     H128826   6.479   3.278   0.882
 9428WAT     H228827   6.318   3.266   0.853
 9429WAT      O28828   6.508   2.365   0.899
 9429WAT     H128829   6.483   2.356   0.803
 9429WAT     H228830   6.556   2.283   0.930
 9430WAT      O28831   6.125   1.926   0.512
 9430WAT     H128832   6.044   1.927   0.570
 9430WAT     H228833   6.128   2.009   0.457
 9431WAT      O28834   6.521   2.098   0.480
 9431WAT     H128835   6.473   2.139   0.402
 9431WAT     H228836   6.620   2.096   0.461
 9432WAT      O28837   6.662   2.545   1.464
 9432WAT     H128838   6.582   2.484   1.467
 9432WAT     H228839   6.743   2.492   1.440
 9433WAT      O28840   6.813   3.432   0.793
 9433WAT     H128841   6.834   3.506   0.728
 9433WAT     H228842   6.881   3.432   0.866
 9434WAT      O28843   6.045   3.014   0.741
 9434WAT     H128844   5.974   2.987   0.806
 9434WAT     H228845   6.019   2.986   0.648
 9435WAT      O28846   6.857   3.659   0.591
 9435WAT     H128847   6.901   3.723   0.527
 9435WAT     H228848   6.807   3.711   0.661
 9436WAT      O28849   6.618   2.411   0.016
 9436WAT     H128850   6.577   2.493  -0.023
 9436WAT     H228851   6.682   2.437   0.089
 9437WAT      O28852   5.664   2.418   1.386
 9437WAT     H128853   5.756   2.417   1.345
 9437WAT     H228854   5.658   2.492   1.453
 9438WAT      O28855   6.147   2.084   1.147
 9438WAT     H128856   6.185   2.000   1.184
 9438WAT     H228857   6.059   2.103   1.191
 9439WAT      O28858   6.452   2.316   0.642
 9439WAT     H128859   6.420   2.388   0.580
 9439WAT     H228860   6.476   2.235   0.589
 9440WAT      O28861   6.603   1.901   0.753
 9440WAT     H128862   6.531   1.906   0.684
 9440WAT     H228863   6.579   1.832   0.822
 9441WAT      O28864   6.074   3.247   0.174
 9441WAT     H128865   5.987   3.232   0.221
 9441WAT     H228866   6.057   3.273   0.079
 9442WAT      O28867   6.113   2.118   0.328
 9442WAT     H128868   6.140   2.059   0.253
 9442WAT     H228869   6.113   2.213   0.297
 9443WAT      O28870   6.650   3.209   1.340
 9443WAT     H128871   6.570   3.186   1.395
 9443WAT     H228872   6.733   3.183   1.389
 9444WAT      O28873   6.697   3.057   1.100
 9444WAT     H128874   6.657   3.101   1.181
 9444WAT     H228875   6.656   3.094   1.017
 9445WAT      O28876   6.501   1.951   1.402
 9445WAT     H128877   6.526   1.931   1.307
 9445WAT     H228878   6.573   2.007   1.444
 9446WAT      O28879   6.566   2.978   1.719
 9446WAT     H128880   6.467   2.984   1.729
 9446WAT     H228881   6.589   2.898   1.663
 9447WAT      O28882   6.291   2.912   0.368
 9447WAT     H128883   6.277   2.919   0.467
 9447WAT     H228884   6.375   2.861   0.350
 9448WAT      O28885   5.996   2.675   1.251
 9448WAT     H128886   6.082   2.687   1.301
 9448WAT     H228887   5.954   2.588   1.278
 9449WAT      O28888   6.860   2.248   1.262
 9449WAT     H128889   6.881   2.322   1.326
 9449WAT     H228890   6.771   2.265   1.219
 9450WAT      O28891   5.650   3.426   1.331
 9450WAT     H128892   5.604   3.508   1.297
 9450WAT     H228893   5.748   3.445   1.340
 9451WAT      O28894   5.953   2.962   0.501
 9451WAT     H128895   5.946   3.045   0.445
 9451WAT     H228896   5.957   2.882   0.441
 9452WAT      O28897   6.152   2.399   0.865
 9452WAT     H128898   6.164   2.465   0.791
 9452WAT     H228899   6.198   2.433   0.948
 9453WAT      O28900   6.838   3.210   0.388
 9453WAT     H128901   6.888   3.287   0.428
 9453WAT     H228902   6.743   3.212   0.420
 9454WAT      O28903   6.858   3.307   1.142
 9454WAT     H128904   6.905   3.320   1.229
 9454WAT     H228905   6.792   3.233   1.151
 9455WAT      O28906   5.940   3.372   1.329
 9455WAT     H128907   5.919   3.328   1.242
 9455WAT     H228908   6.037   3.398   1.332
 9456WAT      O28909   5.988   2.613   1.598
 9456WAT     H128910   6.056   2.668   1.551
 9456WAT     H228911   6.028   2.525   1.625
 9457WAT      O28912   6.599   1.967   1.770
 9457WAT     H128913   6.605   2.052   1.718
 9457WAT     H228914   6.631   1.891   1.713
 9458WAT      O28915   6.090   1.912   1.740
 9458WAT     H128916   6.048   1.855   1.670
 9458WAT     H228917   6.024   1.981   1.772
 9459WAT      O28918   6.159   2.732   1.029
 9459WAT     H128919   6.203   2.821   1.020
 9459WAT     H228920   6.096   2.732   1.106
 9460WAT      O28921   6.946   2.724   1.045
 9460WAT     H128922   6.871   2.724   0.979
 9460WAT     H228923   6.983   2.632   1.054
 9461WAT      O28924   6.795   2.387   0.275
 9461WAT     H128925   6.808   2.303   0.329
 9461WAT     H228926   6.766   2.461   0.335
 9462WAT      O28927   5.893   2.075   1.231
 9462WAT     H128928   5.870   2.112   1.321
 9462WAT     H228929   5.863   1.980   1.225
 9463WAT      O28930   5.623   3.172   1.282
 9463WAT     H128931   5.676   3.123   1.350
 9463WAT     H228932   5.645   3.270   1.287
 9464WAT      O28933   6.318   2.496   1.064
 9464WAT     H128934   6.377   2.470   0.988
 9464WAT     H228935   6.290   2.592   1.053
 9465WAT      O28936   5.893   1.925   0.618
 9465WAT     H128937   5.882   2.019   0.651
 9465WAT     H228938   5.888   1.862   0.695
 9466WAT      O28939   7.208   2.229   0.374
 9466WAT     H128940   7.210   2.153   0.438
 9466WAT     H228941   7.160   2.306   0.414
 9467WAT      O28942   6.609   2.628   0.966
 9467WAT     H128943   6.624   2.649   1.062
 9467WAT     H228944   6.579   2.533   0.957
 9468WAT      O28945   6.566   3.435   1.700
 9468WAT     H128946   6.546   3.479   1.612
 9468WAT     H228947   6.605   3.344   1.684
 9469WAT      O28948   5.936   2.760   1.804
 9469WAT     H128949   6.012   2.804   1.852
 9469WAT     H228950   5.971   2.713   1.722
 9470WAT      O28951   6.889   2.700   0.042
 9470WAT     H128952   6.923   2.607   0.057
 9470WAT     H228953   6.907   2.727  -0.053
 9471WAT      O28954   6.654   3.195   0.849
 9471WAT     H128955   6.661   3.111   0.794
 9471WAT     H228956   6.716   3.264   0.813
 9472WAT      O28957   5.905   2.672   0.949
 9472WAT     H128958   5.998   2.708   0.954
 9472WAT     H228959   5.899   2.587   1.001
 9473WAT      O28960   5.925   2.371   1.006
 9473WAT     H128961   5.873   2.288   0.989
 9473WAT     H228962   6.002   2.376   0.942
 9474WAT      O28963   6.724   2.242   1.678
 9474WAT     H128964   6.679   2.305   1.742
 9474WAT     H228965   6.817   2.273   1.661
 9475WAT      O28966   6.746   2.069   1.477
 9475WAT     H128967   6.746   2.133   1.554
 9475WAT     H228968   6.774   2.117   1.394
 9476WAT      O28969   5.674   3.663   0.927
 9476WAT     H128970   5.632   3.577   0.900
 9476WAT     H228971   5.768   3.666   0.893
 9477WAT      O28972   6.090   3.430   0.910
 9477WAT     H128973   6.156   3.504   0.919
 9477WAT     H228974   6.134   3.351   0.868
 9478WAT      O28975   6.588   2.658   1.238
 9478WAT     H128976   6.629   2.626   1.324
 9478WAT     H228977   6.492   2.631   1.235
 9479WAT      O28978   5.626   2.406   1.114
 9479WAT     H128979   5.711   2.373   1.073
 9479WAT     H228980   5.639   2.421   1.212
 9480WAT      O28981   5.775   2.382   1.722
 9480WAT     H128982   5.834   2.342   1.652
 9480WAT     H228983   5.717   2.453   1.681
 9481WAT      O28984   6.401   2.434   0.325
 9481WAT     H128985   6.408   2.345   0.279
 9481WAT     H228986   6.307   2.468   0.317
 9482WAT      O28987   5.838   3.426   1.744
 9482WAT     H128988   5.808   3.483   1.820
 9482WAT     H228989   5.831   3.329   1.770
 9483WAT      O28990   6.257   2.326   1.269
 9483WAT     H128991   6.223   2.237   1.239
 9483WAT     H228992   6.283   2.380   1.189
 9484WAT      O28993   6.516   3.540   1.465
 9484WAT     H128994   6.492   3.522   1.370
 9484WAT     H228995   6.546   3.634   1.475
 9485WAT      O28996   6.059   2.362   0.191
 9485WAT     H128997   6.120   2.442   0.195
 9485WAT     H228998   5.964   2.393   0.198
 9486WAT      O28999   5.745   2.999   1.466
 9486WAT     H129000   5.767   2.938   1.542
 9486WAT     H229001   5.755   2.950   1.380
 9487WAT      O29002   6.933   2.921   1.234
 9487WAT     H129003   6.957   2.858   1.160
 9487WAT     H229004   6.843   2.961   1.216
 9488WAT      O29005   6.888   2.717   0.309
 9488WAT     H129006   6.802   2.686   0.351
 9488WAT     H229007   6.884   2.703   0.210
 9489WAT      O29008   6.838   3.593   1.128
 9489WAT     H129009   6.922   3.598   1.074
 9489WAT     H229010   6.815   3.497   1.146
 9490WAT      O29011   5.669   3.120   1.022
 9490WAT     H129012   5.664   3.119   1.122
 9490WAT     H229013   5.586   3.079   0.984
 9491WAT      O29014   6.274   3.524   1.716
 9491WAT     H129015   6.218   3.605   1.725
 9491WAT     H229016   6.326   3.528   1.630
 9492WAT      O29017   6.489   1.948   0.133
 9492WAT     H129018   6.540   1.949   0.047
 9492WAT     H229019   6.545   1.906   0.204
 9493WAT      O29020   6.974   3.435   0.477
 9493WAT     H129021   7.041   3.447   0.403
 9493WAT     H229022   6.934   3.524   0.500
 9494WAT      O29023   5.716   3.656   1.851
 9494WAT     H129024   5.675   3.582   1.904
 9494WAT     H229025   5.780   3.707   1.909
 9495WAT      O29026   6.866   2.789   0.672
 9495WAT     H129027   6.926   2.708   0.674
 9495WAT     H229028   6.906   2.858   0.612
 9496WAT      O29029   6.416   3.135   1.422
 9496WAT     H129030   6.411   3.168   1.517
 9496WAT     H229031   6.330   3.154   1.376
 9497WAT      O29032   6.258   3.478   0.154
 9497WAT     H129033   6.267   3.488   0.055
 9497WAT     H229034   6.218   3.389   0.175
 9498WAT      O29035   5.849   2.188   0.720
 9498WAT     H129036   5.770   2.239   0.686
 9498WAT     H229037   5.840   2.173   0.818
 9499WAT      O29038   6.780   3.474   0.031
 9499WAT     H129039   6.786   3.381   0.068
 9499WAT     H229040   6.721   3.474  -0.049
 9500WAT      O29041   6.408   2.864   1.372
 9500WAT     H129042   6.448   2.863   1.280
 9500WAT     H229043   6.418   2.956   1.412
 9501WAT      O29044   6.502   2.772   0.291
 9501WAT     H129045   6.565   2.810   0.223
 9501WAT     H229046   6.542   2.689   0.330
 9502WAT      O29047   5.958   3.150   1.490
 9502WAT     H129048   5.945   3.243   1.456
 9502WAT     H229049   5.874   3.098   1.477
 9503WAT      O29050   6.625   2.960   0.696
 9503WAT     H129051   6.555   2.913   0.750
 9503WAT     H229052   6.684   2.892   0.653
 9504WAT      O29053   6.600   2.098   0.971
 9504WAT     H129054   6.592   2.062   0.878
 9504WAT     H229055   6.598   2.022   1.036
 9505WAT      O29056   6.176   3.349   0.491
 9505WAT     H129057   6.218   3.291   0.421
 9505WAT     H229058   6.132   3.428   0.447
 9506WAT      O29059   5.841   3.210   0.290
 9506WAT     H129060   5.745   3.211   0.263
 9506WAT     H229061   5.853   3.263   0.374
 9507WAT      O29062   5.691   2.875   1.726
 9507WAT     H129063   5.614   2.842   1.780
 9507WAT     H229064   5.776   2.845   1.768
 9508WAT      O29065   6.258   2.065   1.489
 9508WAT     H129066   6.348   2.049   1.449
 9508WAT     H229067   6.266   2.070   1.588
 9509WAT      O29068   5.661   2.207   0.033
 9509WAT     H129069   5.569   2.179   0.004
 9509WAT     H229070   5.692   2.284  -0.023
 9510WAT      O29071   5.658   2.028   0.318
 9510WAT     H129072   5.641   2.111   0.264
 9510WAT     H229073   5.748   1.991   0.296
 9511WAT      O29074   6.199   2.704   1.431
 9511WAT     H129075   6.255   2.785   1.414
 9511WAT     H229076   6.258   2.624   1.434
 9512WAT      O29077   6.302   2.427   1.708
 9512WAT     H129078   6.321   2.492   1.782
 9512WAT     H229079   6.362   2.347   1.717
 9513WAT      O29080   7.036   3.082   1.633
 9513WAT     H129081   7.027   3.072   1.732
 9513WAT     H229082   7.132   3.075   1.607
 9514WAT      O29083   5.976   3.603   1.560
 9514WAT     H129084   5.885   3.644   1.558
 9514WAT     H229085   5.969   3.509   1.592
 9515WAT      O29086   6.811   2.187   0.449
 9515WAT     H129087   6.876   2.113   0.438
 9515WAT     H229088   6.831   2.237   0.533
 9516WAT      O29089   6.180   2.607   0.652
 9516WAT     H129090   6.230   2.692   0.633
 9516WAT     H229091   6.092   2.609   0.604
 9517WAT      O29092   6.445   3.236   0.016
 9517WAT     H129093   6.399   3.251   0.104
 9517WAT     H229094   6.489   3.321  -0.014
 9518WAT      O29095   6.247   3.652   0.953
 9518WAT     H129096   6.201   3.740   0.940
 9518WAT     H229097   6.346   3.664   0.946
 9519WAT      O29098   6.445   2.818   0.861
 9519WAT     H129099   6.499   2.749   0.909
 9519WAT     H229100   6.413   2.887   0.927
 9520WAT      O29101   6.669   2.846   0.087
 9520WAT     H129102   6.646   2.899   0.005
 9520WAT     H229103   6.750   2.790   0.068
 9521WAT      O29104   5.807   3.176   1.844
 9521WAT     H129105   5.742   3.103   1.823
 9521WAT     H229106   5.811   3.190   1.942
 9522WAT      O29107   5.665   3.102   0.653
 9522WAT     H129108   5.664   3.055   0.741
 9522WAT     H229109   5.747   3.074   0.602
 9523WAT      O29110   6.258   3.253   1.624
 9523WAT     H129111   6.180   3.203   1.662
 9523WAT     H229112   6.255   3.348   1.655
 9524WAT      O29113   6.014   2.286   0.520
 9524WAT     H129114   6.044   2.214   0.458
 9524WAT     H229115   5.975   2.246   0.603
 9525WAT      O29116   5.903   2.409   1.280
 9525WAT     H129117   5.941   2.350   1.352
 9525WAT     H229118   5.943   2.383   1.192
 9526WAT      O29119   6.398   3.448   0.687
 9526WAT     H129120   6.430   3.458   0.593
 9526WAT     H229121   6.319   3.386   0.689
 9527WAT      O29122   7.010   2.076   1.112
 9527WAT     H129123   7.062   2.011   1.167
 9527WAT     H229124   6.961   2.139   1.173
 9528WAT      O29125   6.587   1.896   1.154
 9528WAT     H129126   6.524   1.824   1.123
 9528WAT     H229127   6.680   1.860   1.154
 9529WAT      O29128   6.356   3.192   0.301
 9529WAT     H129129   6.310   3.105   0.318
 9529WAT     H229130   6.447   3.189   0.342
 9530WAT      O29131   6.204   3.429   1.284
 9530WAT     H129132   6.199   3.511   1.341
 9530WAT     H229133   6.293   3.426   1.239
 9531WAT      O29134   5.625   2.939   0.300
 9531WAT     H129135   5.724   2.928   0.291
 9531WAT     H229136   5.585   2.853   0.332
 9532WAT      O29137   6.461   3.508   0.337
 9532WAT     H129138   6.384   3.473   0.283
 9532WAT     H229139   6.429   3.579   0.399
 9533WAT      O29140   5.816   2.490   1.975
 9533WAT     H129141   5.723   2.488   2.012
 9533WAT     H229142   5.817   2.451   1.883
 9534WAT      O29143   5.811   2.137   2.858
 9534WAT     H129144   5.846   2.120   2.950
 9534WAT     H229145   5.723   2.092   2.846
 9535WAT      O29146   5.605   2.230   2.509
 9535WAT     H129147   5.523   2.273   2.548
 9535WAT     H229148   5.577   2.157   2.446
 9536WAT      O29149   6.155   3.137   3.027
 9536WAT     H129150   6.062   3.130   2.990
 9536WAT     H229151   6.166   3.226   3.071
 9537WAT      O29152   7.141   3.373   2.565
 9537WAT     H129153   7.084   3.357   2.646
 9537WAT     H229154   7.082   3.383   2.485
 9538WAT      O29155   6.721   2.565   2.579
 9538WAT     H129156   6.778   2.643   2.554
 9538WAT     H229157   6.661   2.591   2.655
 9539WAT      O29158   6.354   3.006   2.885
 9539WAT     H129159   6.276   3.023   2.945
 9539WAT     H229160   6.388   3.093   2.849
 9540WAT      O29161   6.436   2.660   3.685
 9540WAT     H129162   6.432   2.736   3.750
 9540WAT     H229163   6.458   2.696   3.594
 9541WAT      O29164   6.271   2.874   2.527
 9541WAT     H129165   6.340   2.858   2.597
 9541WAT     H229166   6.198   2.931   2.565
 9542WAT      O29167   6.272   3.023   3.665
 9542WAT     H129168   6.332   3.102   3.679
 9542WAT     H229169   6.186   3.054   3.624
 9543WAT      O29170   5.921   3.297   2.923
 9543WAT     H129171   5.843   3.266   2.870
 9543WAT     H229172   5.979   3.355   2.866
 9544WAT      O29173   6.024   2.254   3.361
 9544WAT     H129174   6.106   2.198   3.370
 9544WAT     H229175   5.943   2.196   3.365
 9545WAT      O29176   5.817   3.575   2.345
 9545WAT     H129177   5.851   3.652   2.399
 9545WAT     H229178   5.861   3.575   2.255
 9546WAT      O29179   6.713   3.203   3.552
 9546WAT     H129180   6.760   3.203   3.640
 9546WAT     H229181   6.665   3.116   3.541
 9547WAT      O29182   5.816   3.296   2.400
 9547WAT     H129183   5.790   3.392   2.400
 9547WAT     H229184   5.745   3.242   2.445
 9548WAT      O29185   5.826   2.953   2.748
 9548WAT     H129186   5.840   2.869   2.800
 9548WAT     H229187   5.771   3.017   2.803
 9549WAT      O29188   6.206   3.648   3.301
 9549WAT     H129189   6.114   3.631   3.336
 9549WAT     H229190   6.234   3.740   3.327
 9550WAT      O29191   6.192   2.826   1.985
 9550WAT     H129192   6.199   2.910   1.931
 9550WAT     H229193   6.238   2.839   2.073
 9551WAT      O29194   5.708   2.505   2.425
 9551WAT     H129195   5.663   2.417   2.442
 9551WAT     H229196   5.707   2.559   2.509
 9552WAT      O29197   5.613   3.458   1.979
 9552WAT     H129198   5.594   3.362   2.000
 9552WAT     H229199   5.580   3.516   2.054
 9553WAT      O29200   5.699   2.599   3.459
 9553WAT     H129201   5.787   2.586   3.504
 9553WAT     H229202   5.686   2.696   3.437
 9554WAT      O29203   6.199   3.227   2.588
 9554WAT     H129204   6.150   3.140   2.597
 9554WAT     H229205   6.176   3.270   2.501
 9555WAT      O29206   6.879   3.090   3.285
 9555WAT     H129207   6.916   3.017   3.227
 9555WAT     H229208   6.931   3.095   3.370
 9556WAT      O29209   6.395   1.866   2.364
 9556WAT     H129210   6.435   1.957   2.355
 9556WAT     H229211   6.295   1.874   2.370
 9557WAT      O29212   5.783   2.838   3.126
 9557WAT     H129213   5.872   2.793   3.112
 9557WAT     H229214   5.710   2.773   3.107
 9558WAT      O29215   6.773   3.654   3.478
 9558WAT     H129216   6.797   3.714   3.402
 9558WAT     H229217   6.780   3.559   3.448
 9559WAT      O29218   5.903   2.113   3.663
 9559WAT     H129219   5.974   2.184   3.669
 9559WAT     H229220   5.815   2.152   3.691
 9560WAT      O29221   6.184   2.591   2.132
 9560WAT     H129222   6.208   2.660   2.064
 9560WAT     H229223   6.106   2.624   2.186
 9561WAT      O29224   6.867   2.207   2.806
 9561WAT     H129225   6.781   2.157   2.793
 9561WAT     H229226   6.929   2.153   2.862
 9562WAT      O29227   6.393   2.467   3.327
 9562WAT     H129228   6.346   2.464   3.416
 9562WAT     H229229   6.342   2.412   3.261
 9563WAT      O29230   6.980   2.331   3.536
 9563WAT     H129231   6.960   2.374   3.624
 9563WAT     H229232   7.058   2.269   3.545
 9564WAT      O29233   6.559   2.752   3.434
 9564WAT     H129234   6.605   2.668   3.405
 9564WAT     H229235   6.503   2.786   3.359
 9565WAT      O29236   6.577   2.272   3.104
 9565WAT     H129237   6.500   2.306   3.158
 9565WAT     H229238   6.543   2.221   3.025
 9566WAT      O29239   6.627   2.563   2.291
 9566WAT     H129240   6.653   2.559   2.387
 9566WAT     H229241   6.542   2.512   2.277
 9567WAT      O29242   5.662   2.673   2.651
 9567WAT     H129243   5.761   2.661   2.660
 9567WAT     H229244   5.638   2.768   2.672
 9568WAT      O29245   5.716   3.683   3.433
 9568WAT     H129246   5.706   3.668   3.532
 9568WAT     H229247   5.630   3.719   3.397
 9569WAT      O29248   6.451   2.210   2.057
 9569WAT     H129249   6.510   2.273   2.008
 9569WAT     H229250   6.470   2.116   2.028
 9570WAT      O29251   6.948   3.006   2.407
 9570WAT     H129252   7.031   2.977   2.359
 9570WAT     H229253   6.899   3.073   2.351
 9571WAT      O29254   6.136   2.058   2.747
 9571WAT     H129255   6.131   2.053   2.847
 9571WAT     H229256   6.138   2.154   2.718
 9572WAT      O29257   6.594   3.318   2.339
 9572WAT     H129258   6.548   3.390   2.287
 9572WAT     H229259   6.590   3.338   2.437
 9573WAT      O29260   5.937   3.663   2.715
 9573WAT     H129261   5.987   3.577   2.721
 9573WAT     H229262   6.002   3.740   2.712
 9574WAT      O29263   6.813   3.412   3.368
 9574WAT     H129264   6.819   3.335   3.432
 9574WAT     H229265   6.761   3.386   3.288
 9575WAT      O29266   5.907   2.805   2.104
 9575WAT     H129267   5.989   2.844   2.062
 9575WAT     H229268   5.880   2.723   2.055
 9576WAT      O29269   6.047   3.128   3.589
 9576WAT     H129270   5.997   3.129   3.503
 9576WAT     H229271   5.984   3.110   3.665
 9577WAT      O29272   6.697   3.638   2.099
 9577WAT     H129273   6.637   3.576   2.149
 9577WAT     H229274   6.728   3.594   2.014
 9578WAT      O29275   5.788   2.147   3.360
 9578WAT     H129276   5.708   2.207   3.347
 9578WAT     H229277   5.778   2.098   3.446
 9579WAT      O29278   6.050   3.605   2.185
 9579WAT     H129279   6.083   3.644   2.271
 9579WAT     H229280   6.126   3.598   2.120
 9580WAT      O29281   5.835   3.647   3.103
 9580WAT     H129282   5.892   3.582   3.153
 9580WAT     H229283   5.819   3.614   3.010
 9581WAT      O29284   6.526   3.560   2.766
 9581WAT     H129285   6.606   3.503   2.787
 9581WAT     H229286   6.477   3.520   2.689
 9582WAT      O29287   5.968   2.562   2.342
 9582WAT     H129288   6.013   2.472   2.339
 9582WAT     H229289   5.874   2.551   2.375
 9583WAT      O29290   6.200   1.984   1.979
 9583WAT     H129291   6.298   1.962   1.986
 9583WAT     H229292   6.169   1.967   1.886
 9584WAT      O29293   6.367   2.126   3.611
 9584WAT     H129294   6.434   2.065   3.654
 9584WAT     H229295   6.294   2.145   3.676
 9585WAT      O29296   6.474   3.376   3.057
 9585WAT     H129297   6.451   3.351   2.963
 9585WAT     H229298   6.535   3.307   3.096
 9586WAT      O29299   6.389   3.264   2.786
 9586WAT     H129300   6.479   3.278   2.744
 9586WAT     H229301   6.318   3.266   2.715
 9587WAT      O29302   6.508   2.365   2.761
 9587WAT     H129303   6.483   2.356   2.665
 9587WAT     H229304   6.556   2.283   2.792
 9588WAT      O29305   6.125   1.926   2.374
 9588WAT     H129306   6.044   1.927   2.432
 9588WAT     H229307   6.128   2.009   2.319
 9589WAT      O29308   7.020   3.050   1.903
 9589WAT     H129309   7.052   2.974   1.960
 9589WAT     H229310   6.928   3.077   1.933
 9590WAT      O29311   5.883   1.897   2.033
 9590WAT     H129312   5.932   1.981   2.012
 9590WAT     H229313   5.945   1.832   2.078
 9591WAT      O29314   6.521   2.098   2.342
 9591WAT     H129315   6.473   2.139   2.264
 9591WAT     H229316   6.620   2.096   2.323
 9592WAT      O29317   6.662   2.545   3.326
 9592WAT     H129318   6.582   2.484   3.329
 9592WAT     H229319   6.743   2.492   3.302
 9593WAT      O29320   6.813   3.432   2.655
 9593WAT     H129321   6.834   3.506   2.590
 9593WAT     H229322   6.881   3.432   2.728
 9594WAT      O29323   6.045   3.014   2.603
 9594WAT     H129324   5.974   2.987   2.668
 9594WAT     H229325   6.019   2.986   2.510
 9595WAT      O29326   6.857   3.659   2.453
 9595WAT     H129327   6.901   3.723   2.389
 9595WAT     H229328   6.807   3.711   2.523
 9596WAT      O29329   6.618   2.411   1.878
 9596WAT     H129330   6.577   2.493   1.839
 9596WAT     H229331   6.682   2.437   1.951
 9597WAT      O29332   5.664   2.418   3.248
 9597WAT     H129333   5.756   2.417   3.207
 9597WAT     H229334   5.658   2.492   3.315
 9598WAT      O29335   6.147   2.084   3.009
 9598WAT     H129336   6.185   2.000   3.046
 9598WAT     H229337   6.059   2.103   3.053
 9599WAT      O29338   6.452   2.316   2.504
 9599WAT     H129339   6.420   2.388   2.442
 9599WAT     H229340   6.476   2.235   2.451
 9600WAT      O29341   6.603   1.901   2.615
 9600WAT     H129342   6.531   1.906   2.546
 9600WAT     H229343   6.579   1.832   2.684
 9601WAT      O29344   6.074   3.247   2.036
 9601WAT     H129345   5.987   3.232   2.083
 9601WAT     H229346   6.057   3.273   1.941
 9602WAT      O29347   6.113   2.118   2.190
 9602WAT     H129348   6.140   2.059   2.115
 9602WAT     H229349   6.113   2.213   2.159
 9603WAT      O29350   6.650   3.209   3.202
 9603WAT     H129351   6.570   3.186   3.257
 9603WAT     H229352   6.733   3.183   3.251
 9604WAT      O29353   6.697   3.057   2.962
 9604WAT     H129354   6.657   3.101   3.043
 9604WAT     H229355   6.656   3.094   2.879
 9605WAT      O29356   6.501   1.951   3.264
 9605WAT     H129357   6.526   1.931   3.169
 9605WAT     H229358   6.573   2.007   3.306
 9606WAT      O29359   6.566   2.978   3.581
 9606WAT     H129360   6.467   2.984   3.591
 9606WAT     H229361   6.589   2.898   3.525
 9607WAT      O29362   6.291   2.912   2.230
 9607WAT     H129363   6.277   2.919   2.329
 9607WAT     H229364   6.375   2.861   2.212
 9608WAT      O29365   5.996   2.675   3.113
 9608WAT     H129366   6.082   2.687   3.163
 9608WAT     H229367   5.954   2.588   3.140
 9609WAT      O29368   6.860   2.248   3.124
 9609WAT     H129369   6.881   2.322   3.188
 9609WAT     H229370   6.771   2.265   3.081
 9610WAT      O29371   5.650   3.426   3.193
 9610WAT     H129372   5.604   3.508   3.159
 9610WAT     H229373   5.748   3.445   3.202
 9611WAT      O29374   5.953   2.962   2.363
 9611WAT     H129375   5.946   3.045   2.307
 9611WAT     H229376   5.957   2.882   2.303
 9612WAT      O29377   6.152   2.399   2.727
 9612WAT     H129378   6.164   2.465   2.653
 9612WAT     H229379   6.198   2.433   2.810
 9613WAT      O29380   6.838   3.210   2.250
 9613WAT     H129381   6.888   3.287   2.290
 9613WAT     H229382   6.743   3.212   2.282
 9614WAT      O29383   6.858   3.307   3.004
 9614WAT     H129384   6.905   3.320   3.091
 9614WAT     H229385   6.792   3.233   3.013
 9615WAT      O29386   5.940   3.372   3.191
 9615WAT     H129387   5.919   3.328   3.104
 9615WAT     H229388   6.037   3.398   3.194
 9616WAT      O29389   5.988   2.613   3.460
 9616WAT     H129390   6.056   2.668   3.413
 9616WAT     H229391   6.028   2.525   3.487
 9617WAT      O29392   6.599   1.967   3.632
 9617WAT     H129393   6.605   2.052   3.580
 9617WAT     H229394   6.631   1.891   3.575
 9618WAT      O29395   6.090   1.912   3.602
 9618WAT     H129396   6.048   1.855   3.532
 9618WAT     H229397   6.024   1.981   3.634
 9619WAT      O29398   6.159   2.732   2.891
 9619WAT     H129399   6.203   2.821   2.882
 9619WAT     H229400   6.096   2.732   2.968
 9620WAT      O29401   6.946   2.724   2.907
 9620WAT     H129402   6.871   2.724   2.841
 9620WAT     H229403   6.983   2.632   2.916
 9621WAT      O29404   6.795   2.387   2.137
 9621WAT     H129405   6.808   2.303   2.191
 9621WAT     H229406   6.766   2.461   2.197
 9622WAT      O29407   5.893   2.075   3.093
 9622WAT     H129408   5.870   2.112   3.183
 9622WAT     H229409   5.863   1.980   3.087
 9623WAT      O29410   5.623   3.172   3.144
 9623WAT     H129411   5.676   3.123   3.212
 9623WAT     H229412   5.645   3.270   3.149
 9624WAT      O29413   6.318   2.496   2.926
 9624WAT     H129414   6.377   2.470   2.850
 9624WAT     H229415   6.290   2.592   2.915
 9625WAT      O29416   5.893   1.925   2.480
 9625WAT     H129417   5.882   2.019   2.513
 9625WAT     H229418   5.888   1.862   2.557
 9626WAT      O29419   7.208   2.229   2.236
 9626WAT     H129420   7.210   2.153   2.300
 9626WAT     H229421   7.160   2.306   2.276
 9627WAT      O29422   6.609   2.628   2.828
 9627WAT     H129423   6.624   2.649   2.924
 9627WAT     H229424   6.579   2.533   2.819
 9628WAT      O29425   6.566   3.435   3.562
 9628WAT     H129426   6.546   3.479   3.474
 9628WAT     H229427   6.605   3.344   3.546
 9629WAT      O29428   5.936   2.760   3.666
 9629WAT     H129429   6.012   2.804   3.714
 9629WAT     H229430   5.971   2.713   3.584
 9630WAT      O29431   6.889   2.700   1.904
 9630WAT     H129432   6.923   2.607   1.919
 9630WAT     H229433   6.907   2.727   1.809
 9631WAT      O29434   6.654   3.195   2.711
 9631WAT     H129435   6.661   3.111   2.656
 9631WAT     H229436   6.716   3.264   2.675
 9632WAT      O29437   5.905   2.672   2.811
 9632WAT     H129438   5.998   2.708   2.816
 9632WAT     H229439   5.899   2.587   2.863
 9633WAT      O29440   5.925   2.371   2.868
 9633WAT     H129441   5.873   2.288   2.851
 9633WAT     H229442   6.002   2.376   2.804
 9634WAT      O29443   6.724   2.242   3.540
 9634WAT     H129444   6.679   2.305   3.604
 9634WAT     H229445   6.817   2.273   3.523
 9635WAT      O29446   6.746   2.069   3.339
 9635WAT     H129447   6.746   2.133   3.416
 9635WAT     H229448   6.774   2.117   3.256
 9636WAT      O29449   5.594   3.188   2.062
 9636WAT     H129450   5.501   3.209   2.031
 9636WAT     H229451   5.604   3.089   2.075
 9637WAT      O29452   5.674   3.663   2.789
 9637WAT     H129453   5.632   3.577   2.762
 9637WAT     H229454   5.768   3.666   2.755
 9638WAT      O29455   6.090   3.430   2.772
 9638WAT     H129456   6.156   3.504   2.781
 9638WAT     H229457   6.134   3.351   2.730
 9639WAT      O29458   6.588   2.658   3.100
 9639WAT     H129459   6.629   2.626   3.186
 9639WAT     H229460   6.492   2.631   3.097
 9640WAT      O29461   5.626   2.406   2.976
 9640WAT     H129462   5.711   2.373   2.935
 9640WAT     H229463   5.639   2.421   3.074
 9641WAT      O29464   5.775   2.382   3.584
 9641WAT     H129465   5.834   2.342   3.514
 9641WAT     H229466   5.717   2.453   3.543
 9642WAT      O29467   6.401   2.434   2.187
 9642WAT     H129468   6.408   2.345   2.141
 9642WAT     H229469   6.307   2.468   2.179
 9643WAT      O29470   5.838   3.426   3.606
 9643WAT     H129471   5.808   3.483   3.682
 9643WAT     H229472   5.831   3.329   3.632
 9644WAT      O29473   6.257   2.326   3.131
 9644WAT     H129474   6.223   2.237   3.101
 9644WAT     H229475   6.283   2.380   3.051
 9645WAT      O29476   6.516   3.540   3.327
 9645WAT     H129477   6.492   3.522   3.232
 9645WAT     H229478   6.546   3.634   3.337
 9646WAT      O29479   6.059   2.362   2.053
 9646WAT     H129480   6.120   2.442   2.057
 9646WAT     H229481   5.964   2.393   2.060
 9647WAT      O29482   5.745   2.999   3.328
 9647WAT     H129483   5.767   2.938   3.404
 9647WAT     H229484   5.755   2.950   3.242
 9648WAT      O29485   6.933   2.921   3.096
 9648WAT     H129486   6.957   2.858   3.022
 9648WAT     H229487   6.843   2.961   3.078
 9649WAT      O29488   6.888   2.717   2.171
 9649WAT     H129489   6.802   2.686   2.213
 9649WAT     H229490   6.884   2.703   2.072
 9650WAT      O29491   6.838   3.593   2.990
 9650WAT     H129492   6.922   3.598   2.936
 9650WAT     H229493   6.815   3.497   3.008
 9651WAT      O29494   5.669   3.120   2.884
 9651WAT     H129495   5.664   3.119   2.984
 9651WAT     H229496   5.586   3.079   2.846
 9652WAT      O29497   6.274   3.524   3.578
 9652WAT     H129498   6.218   3.605   3.587
 9652WAT     H229499   6.326   3.528   3.492
 9653WAT      O29500   6.974   3.435   2.339
 9653WAT     H129501   7.041   3.447   2.265
 9653WAT     H229502   6.934   3.524   2.362
 9654WAT      O29503   5.716   3.656   3.713
 9654WAT     H129504   5.675   3.582   3.766
 9654WAT     H229505   5.780   3.707   3.771
 9655WAT      O29506   6.866   2.789   2.534
 9655WAT     H129507   6.926   2.708   2.536
 9655WAT     H229508   6.906   2.858   2.474
 9656WAT      O29509   6.416   3.135   3.284
 9656WAT     H129510   6.411   3.168   3.379
 9656WAT     H229511   6.330   3.154   3.238
 9657WAT      O29512   6.258   3.478   2.016
 9657WAT     H129513   6.267   3.488   1.917
 9657WAT     H229514   6.218   3.389   2.037
 9658WAT      O29515   5.849   2.188   2.582
 9658WAT     H129516   5.770   2.239   2.548
 9658WAT     H229517   5.840   2.173   2.680
 9659WAT      O29518   6.780   3.474   1.893
 9659WAT     H129519   6.786   3.381   1.930
 9659WAT     H229520   6.721   3.474   1.813
 9660WAT      O29521   6.408   2.864   3.234
 9660WAT     H129522   6.448   2.863   3.142
 9660WAT     H229523   6.418   2.956   3.274
 9661WAT      O29524   6.502   2.772   2.153
 9661WAT     H129525   6.565   2.810   2.085
 9661WAT     H229526   6.542   2.689   2.192
 9662WAT      O29527   5.958   3.150   3.352
 9662WAT     H129528   5.945   3.243   3.318
 9662WAT     H229529   5.874   3.098   3.339
 9663WAT      O29530   6.625   2.960   2.558
 9663WAT     H129531   6.555   2.913   2.612
 9663WAT     H229532   6.684   2.892   2.515
 9664WAT      O29533   6.600   2.098   2.833
 9664WAT     H129534   6.592   2.062   2.740
 9664WAT     H229535   6.598   2.022   2.898
 9665WAT      O29536   6.176   3.349   2.353
 9665WAT     H129537   6.218   3.291   2.283
 9665WAT     H229538   6.132   3.428   2.309
 9666WAT      O29539   5.841   3.210   2.152
 9666WAT     H129540   5.745   3.211   2.125
 9666WAT     H229541   5.853   3.263   2.236
 9667WAT      O29542   5.691   2.875   3.588
 9667WAT     H129543   5.614   2.842   3.642
 9667WAT     H229544   5.776   2.845   3.630
 9668WAT      O29545   6.258   2.065   3.351
 9668WAT     H129546   6.348   2.049   3.311
 9668WAT     H229547   6.266   2.070   3.450
 9669WAT      O29548   5.661   2.207   1.895
 9669WAT     H129549   5.569   2.179   1.866
 9669WAT     H229550   5.692   2.284   1.839
 9670WAT      O29551   5.658   2.028   2.180
 9670WAT     H129552   5.641   2.111   2.126
 9670WAT     H229553   5.748   1.991   2.158
 9671WAT      O29554   6.199   2.704   3.293
 9671WAT     H129555   6.255   2.785   3.276
 9671WAT     H229556   6.258   2.624   3.296
 9672WAT      O29557   6.302   2.427   3.570
 9672WAT     H129558   6.321   2.492   3.644
 9672WAT     H229559   6.362   2.347   3.579
 9673WAT      O29560   7.036   3.082   3.495
 9673WAT     H129561   7.027   3.072   3.594
 9673WAT     H229562   7.132   3.075   3.469
 9674WAT      O29563   5.976   3.603   3.422
 9674WAT     H129564   5.885   3.644   3.420
 9674WAT     H229565   5.969   3.509   3.454
 9675WAT      O29566   6.811   2.187   2.311
 9675WAT     H129567   6.876   2.113   2.300
 9675WAT     H229568   6.831   2.237   2.395
 9676WAT      O29569   6.180   2.607   2.514
 9676WAT     H129570   6.230   2.692   2.495
 9676WAT     H229571   6.092   2.609   2.466
 9677WAT      O29572   6.445   3.236   1.878
 9677WAT     H129573   6.399   3.251   1.966
 9677WAT     H229574   6.489   3.321   1.848
 9678WAT      O29575   6.247   3.652   2.815
 9678WAT     H129576   6.201   3.740   2.802
 9678WAT     H229577   6.346   3.664   2.808
 9679WAT      O29578   6.445   2.818   2.723
 9679WAT     H129579   6.499   2.749   2.771
 9679WAT     H229580   6.413   2.887   2.789
 9680WAT      O29581   6.669   2.846   1.949
 9680WAT     H129582   6.646   2.899   1.867
 9680WAT     H229583   6.750   2.790   1.930
 9681WAT      O29584   5.807   3.176   3.706
 9681WAT     H129585   5.742   3.103   3.685
 9681WAT     H229586   5.811   3.190   3.804
 9682WAT      O29587   5.665   3.102   2.515
 9682WAT     H129588   5.664   3.055   2.603
 9682WAT     H229589   5.747   3.074   2.464
 9683WAT      O29590   6.258   3.253   3.486
 9683WAT     H129591   6.180   3.203   3.524
 9683WAT     H229592   6.255   3.348   3.517
 9684WAT      O29593   6.014   2.286   2.382
 9684WAT     H129594   6.044   2.214   2.320
 9684WAT     H229595   5.975   2.246   2.465
 9685WAT      O29596   5.903   2.409   3.142
 9685WAT     H129597   5.941   2.350   3.214
 9685WAT     H229598   5.943   2.383   3.054
 9686WAT      O29599   6.398   3.448   2.549
 9686WAT     H129600   6.430   3.458   2.455
 9686WAT     H229601   6.319   3.386   2.551
 9687WAT      O29602   7.010   2.076   2.974
 9687WAT     H129603   7.062   2.011   3.029
 9687WAT     H229604   6.961   2.139   3.035
 9688WAT      O29605   6.587   1.896   3.016
 9688WAT     H129606   6.524   1.824   2.985
 9688WAT     H229607   6.680   1.860   3.016
 9689WAT      O29608   6.356   3.192   2.163
 9689WAT     H129609   6.310   3.105   2.180
 9689WAT     H229610   6.447   3.189   2.204
 9690WAT      O29611   6.204   3.429   3.146
 9690WAT     H129612   6.199   3.511   3.203
 9690WAT     H229613   6.293   3.426   3.101
 9691WAT      O29614   6.938   1.914   2.030
 9691WAT     H129615   6.973   1.873   1.946
 9691WAT     H229616   6.848   1.876   2.050
 9692WAT      O29617   5.625   2.939   2.162
 9692WAT     H129618   5.724   2.928   2.153
 9692WAT     H229619   5.585   2.853   2.194
 9693WAT      O29620   6.461   3.508   2.199
 9693WAT     H129621   6.384   3.473   2.145
 9693WAT     H229622   6.429   3.579   2.261
 9694WAT      O29623   5.816   2.490   3.837
 9694WAT     H129624   5.723   2.488   3.874
 9694WAT     H229625   5.817   2.451   3.745
 9695WAT      O29626   5.811   2.137   4.720
 9695WAT     H129627   5.846   2.120   4.812
 9695WAT     H229628   5.723   2.092   4.708
 9696WAT      O29629   5.605   2.230   4.371
 9696WAT     H129630   5.523   2.273   4.410
 9696WAT     H229631   5.577   2.157   4.308
 9697WAT      O29632   6.155   3.137   4.889
 9697WAT     H129633   6.062   3.130   4.852
 9697WAT     H229634   6.166   3.226   4.933
 9698WAT      O29635   7.141   3.373   4.427
 9698WAT     H129636   7.084   3.357   4.508
 9698WAT     H229637   7.082   3.383   4.347
 9699WAT      O29638   6.721   2.565   4.441
 9699WAT     H129639   6.778   2.643   4.416
 9699WAT     H229640   6.661   2.591   4.517
 9700WAT      O29641   6.354   3.006   4.747
 9700WAT     H129642   6.276   3.023   4.807
 9700WAT     H229643   6.388   3.093   4.711
 9701WAT      O29644   6.436   2.660   5.547
 9701WAT     H129645   6.432   2.736   5.612
 9701WAT     H229646   6.458   2.696   5.456
 9702WAT      O29647   6.271   2.874   4.389
 9702WAT     H129648   6.340   2.858   4.459
 9702WAT     H229649   6.198   2.931   4.427
 9703WAT      O29650   6.272   3.023   5.527
 9703WAT     H129651   6.332   3.102   5.541
 9703WAT     H229652   6.186   3.054   5.486
 9704WAT      O29653   5.921   3.297   4.785
 9704WAT     H129654   5.843   3.266   4.732
 9704WAT     H229655   5.979   3.355   4.728
 9705WAT      O29656   6.024   2.254   5.223
 9705WAT     H129657   6.106   2.198   5.232
 9705WAT     H229658   5.943   2.196   5.227
 9706WAT      O29659   5.817   3.575   4.207
 9706WAT     H129660   5.851   3.652   4.261
 9706WAT     H229661   5.861   3.575   4.117
 9707WAT      O29662   6.713   3.203   5.414
 9707WAT     H129663   6.760   3.203   5.502
 9707WAT     H229664   6.665   3.116   5.403
 9708WAT      O29665   5.816   3.296   4.262
 9708WAT     H129666   5.790   3.392   4.262
 9708WAT     H229667   5.745   3.242   4.307
 9709WAT      O29668   5.826   2.953   4.610
 9709WAT     H129669   5.840   2.869   4.662
 9709WAT     H229670   5.771   3.017   4.665
 9710WAT      O29671   6.206   3.648   5.163
 9710WAT     H129672   6.114   3.631   5.198
 9710WAT     H229673   6.234   3.740   5.189
 9711WAT      O29674   6.192   2.826   3.847
 9711WAT     H129675   6.199   2.910   3.793
 9711WAT     H229676   6.238   2.839   3.935
 9712WAT      O29677   5.708   2.505   4.287
 9712WAT     H129678   5.663   2.417   4.304
 9712WAT     H229679   5.707   2.559   4.371
 9713WAT      O29680   5.613   3.458   3.841
 9713WAT     H129681   5.594   3.362   3.862
 9713WAT     H229682   5.580   3.516   3.916
 9714WAT      O29683   5.699   2.599   5.321
 9714WAT     H129684   5.787   2.586   5.366
 9714WAT     H229685   5.686   2.696   5.299
 9715WAT      O29686   6.199   3.227   4.450
 9715WAT     H129687   6.150   3.140   4.459
 9715WAT     H229688   6.176   3.270   4.363
 9716WAT      O29689   6.879   3.090   5.147
 9716WAT     H129690   6.916   3.017   5.089
 9716WAT     H229691   6.931   3.095   5.232
 9717WAT      O29692   6.395   1.866   4.226
 9717WAT     H129693   6.435   1.957   4.217
 9717WAT     H229694   6.295   1.874   4.232
 9718WAT      O29695   5.783   2.838   4.988
 9718WAT     H129696   5.872   2.793   4.974
 9718WAT     H229697   5.710   2.773   4.969
 9719WAT      O29698   6.773   3.654   5.340
 9719WAT     H129699   6.797   3.714   5.264
 9719WAT     H229700   6.780   3.559   5.310
 9720WAT      O29701   5.903   2.113   5.525
 9720WAT     H129702   5.974   2.184   5.531
 9720WAT     H229703   5.815   2.152   5.553
 9721WAT      O29704   6.184   2.591   3.994
 9721WAT     H129705   6.208   2.660   3.926
 9721WAT     H229706   6.106   2.624   4.048
 9722WAT      O29707   6.867   2.207   4.668
 9722WAT     H129708   6.781   2.157   4.655
 9722WAT     H229709   6.929   2.153   4.724
 9723WAT      O29710   6.393   2.467   5.189
 9723WAT     H129711   6.346   2.464   5.278
 9723WAT     H229712   6.342   2.412   5.123
 9724WAT      O29713   6.980   2.331   5.398
 9724WAT     H129714   6.960   2.374   5.486
 9724WAT     H229715   7.058   2.269   5.407
 9725WAT      O29716   6.559   2.752   5.296
 9725WAT     H129717   6.605   2.668   5.267
 9725WAT     H229718   6.503   2.786   5.221
 9726WAT      O29719   6.577   2.272   4.966
 9726WAT     H129720   6.500   2.306   5.020
 9726WAT     H229721   6.543   2.221   4.887
 9727WAT      O29722   6.627   2.563   4.153
 9727WAT     H129723   6.653   2.559   4.249
 9727WAT     H229724   6.542   2.512   4.139
 9728WAT      O29725   5.662   2.673   4.513
 9728WAT     H129726   5.761   2.661   4.522
 9728WAT     H229727   5.638   2.768   4.534
 9729WAT      O29728   5.716   3.683   5.295
 9729WAT     H129729   5.706   3.668   5.394
 9729WAT     H229730   5.630   3.719   5.259
 9730WAT      O29731   6.451   2.210   3.919
 9730WAT     H129732   6.510   2.273   3.870
 9730WAT     H229733   6.470   2.116   3.890
 9731WAT      O29734   6.948   3.006   4.269
 9731WAT     H129735   7.031   2.977   4.221
 9731WAT     H229736   6.899   3.073   4.213
 9732WAT      O29737   6.136   2.058   4.609
 9732WAT     H129738   6.131   2.053   4.709
 9732WAT     H229739   6.138   2.154   4.580
 9733WAT      O29740   6.594   3.318   4.201
 9733WAT     H129741   6.548   3.390   4.149
 9733WAT     H229742   6.590   3.338   4.299
 9734WAT      O29743   5.937   3.663   4.577
 9734WAT     H129744   5.987   3.577   4.583
 9734WAT     H229745   6.002   3.740   4.574
 9735WAT      O29746   6.813   3.412   5.230
 9735WAT     H129747   6.819   3.335   5.294
 9735WAT     H229748   6.761   3.386   5.150
 9736WAT      O29749   5.907   2.805   3.966
 9736WAT     H129750   5.989   2.844   3.924
 9736WAT     H229751   5.880   2.723   3.917
 9737WAT      O29752   6.047   3.128   5.451
 9737WAT     H129753   5.997   3.129   5.365
 9737WAT     H229754   5.984   3.110   5.527
 9738WAT      O29755   6.697   3.638   3.961
 9738WAT     H129756   6.637   3.576   4.011
 9738WAT     H229757   6.728   3.594   3.876
 9739WAT      O29758   5.788   2.147   5.222
 9739WAT     H129759   5.708   2.207   5.209
 9739WAT     H229760   5.778   2.098   5.308
 9740WAT      O29761   6.050   3.605   4.047
 9740WAT     H129762   6.083   3.644   4.133
 9740WAT     H229763   6.126   3.598   3.982
 9741WAT      O29764   5.835   3.647   4.965
 9741WAT     H129765   5.892   3.582   5.015
 9741WAT     H229766   5.819   3.614   4.872
 9742WAT      O29767   6.526   3.560   4.628
 9742WAT     H129768   6.606   3.503   4.649
 9742WAT     H229769   6.477   3.520   4.551
 9743WAT      O29770   5.968   2.562   4.204
 9743WAT     H129771   6.013   2.472   4.201
 9743WAT     H229772   5.874   2.551   4.237
 9744WAT      O29773   6.200   1.984   3.841
 9744WAT     H129774   6.298   1.962   3.848
 9744WAT     H229775   6.169   1.967   3.748
 9745WAT      O29776   6.367   2.126   5.473
 9745WAT     H129777   6.434   2.065   5.516
 9745WAT     H229778   6.294   2.145   5.538
 9746WAT      O29779   6.474   3.376   4.919
 9746WAT     H129780   6.451   3.351   4.825
 9746WAT     H229781   6.535   3.307   4.958
 9747WAT      O29782   6.389   3.264   4.648
 9747WAT     H129783   6.479   3.278   4.606
 9747WAT     H229784   6.318   3.266   4.577
 9748WAT      O29785   6.508   2.365   4.623
 9748WAT     H129786   6.483   2.356   4.527
 9748WAT     H229787   6.556   2.283   4.654
 9749WAT      O29788   6.125   1.926   4.236
 9749WAT     H129789   6.044   1.927   4.294
 9749WAT     H229790   6.128   2.009   4.181
 9750WAT      O29791   7.020   3.050   3.765
 9750WAT     H129792   7.052   2.974   3.822
 9750WAT     H229793   6.928   3.077   3.795
 9751WAT      O29794   5.883   1.897   3.895
 9751WAT     H129795   5.932   1.981   3.874
 9751WAT     H229796   5.945   1.832   3.940
 9752WAT      O29797   6.521   2.098   4.204
 9752WAT     H129798   6.473   2.139   4.126
 9752WAT     H229799   6.620   2.096   4.185
 9753WAT      O29800   6.662   2.545   5.188
 9753WAT     H129801   6.582   2.484   5.191
 9753WAT     H229802   6.743   2.492   5.164
 9754WAT      O29803   6.813   3.432   4.517
 9754WAT     H129804   6.834   3.506   4.452
 9754WAT     H229805   6.881   3.432   4.590
 9755WAT      O29806   6.045   3.014   4.465
 9755WAT     H129807   5.974   2.987   4.530
 9755WAT     H229808   6.019   2.986   4.372
 9756WAT      O29809   6.857   3.659   4.315
 9756WAT     H129810   6.901   3.723   4.251
 9756WAT     H229811   6.807   3.711   4.385
 9757WAT      O29812   6.618   2.411   3.740
 9757WAT     H129813   6.577   2.493   3.701
 9757WAT     H229814   6.682   2.437   3.813
 9758WAT      O29815   5.664   2.418   5.110
 9758WAT     H129816   5.756   2.417   5.069
 9758WAT     H229817   5.658   2.492   5.177
 9759WAT      O29818   6.147   2.084   4.871
 9759WAT     H129819   6.185   2.000   4.908
 9759WAT     H229820   6.059   2.103   4.915
 9760WAT      O29821   6.452   2.316   4.366
 9760WAT     H129822   6.420   2.388   4.304
 9760WAT     H229823   6.476   2.235   4.313
 9761WAT      O29824   6.603   1.901   4.477
 9761WAT     H129825   6.531   1.906   4.408
 9761WAT     H229826   6.579   1.832   4.546
 9762WAT      O29827   6.074   3.247   3.898
 9762WAT     H129828   5.987   3.232   3.945
 9762WAT     H229829   6.057   3.273   3.803
 9763WAT      O29830   6.113   2.118   4.052
 9763WAT     H129831   6.140   2.059   3.977
 9763WAT     H229832   6.113   2.213   4.021
 9764WAT      O29833   6.650   3.209   5.064
 9764WAT     H129834   6.570   3.186   5.119
 9764WAT     H229835   6.733   3.183   5.113
 9765WAT      O29836   6.697   3.057   4.824
 9765WAT     H129837   6.657   3.101   4.905
 9765WAT     H229838   6.656   3.094   4.741
 9766WAT      O29839   6.501   1.951   5.126
 9766WAT     H129840   6.526   1.931   5.031
 9766WAT     H229841   6.573   2.007   5.168
 9767WAT      O29842   6.566   2.978   5.443
 9767WAT     H129843   6.467   2.984   5.453
 9767WAT     H229844   6.589   2.898   5.387
 9768WAT      O29845   6.291   2.912   4.092
 9768WAT     H129846   6.277   2.919   4.191
 9768WAT     H229847   6.375   2.861   4.074
 9769WAT      O29848   5.996   2.675   4.975
 9769WAT     H129849   6.082   2.687   5.025
 9769WAT     H229850   5.954   2.588   5.002
 9770WAT      O29851   6.860   2.248   4.986
 9770WAT     H129852   6.881   2.322   5.050
 9770WAT     H229853   6.771   2.265   4.943
 9771WAT      O29854   5.650   3.426   5.055
 9771WAT     H129855   5.604   3.508   5.021
 9771WAT     H229856   5.748   3.445   5.064
 9772WAT      O29857   5.953   2.962   4.225
 9772WAT     H129858   5.946   3.045   4.169
 9772WAT     H229859   5.957   2.882   4.165
 9773WAT      O29860   6.152   2.399   4.589
 9773WAT     H129861   6.164   2.465   4.515
 9773WAT     H229862   6.198   2.433   4.672
 9774WAT      O29863   6.838   3.210   4.112
 9774WAT     H129864   6.888   3.287   4.152
 9774WAT     H229865   6.743   3.212   4.144
 9775WAT      O29866   6.858   3.307   4.866
 9775WAT     H129867   6.905   3.320   4.953
 9775WAT     H229868   6.792   3.233   4.875
 9776WAT      O29869   5.940   3.372   5.053
 9776WAT     H129870   5.919   3.328   4.966
 9776WAT     H229871   6.037   3.398   5.056
 9777WAT      O29872   5.988   2.613   5.322
 9777WAT     H129873   6.056   2.668   5.275
 9777WAT     H229874   6.028   2.525   5.349
 9778WAT      O29875   6.599   1.967   5.494
 9778WAT     H129876   6.605   2.052   5.442
 9778WAT     H229877   6.631   1.891   5.437
 9779WAT      O29878   6.090   1.912   5.464
 9779WAT     H129879   6.048   1.855   5.394
 9779WAT     H229880   6.024   1.981   5.496
 9780WAT      O29881   6.159   2.732   4.753
 9780WAT     H129882   6.203   2.821   4.744
 9780WAT     H229883   6.096   2.732   4.830
 9781WAT      O29884   6.946   2.724   4.769
 9781WAT     H129885   6.871   2.724   4.703
 9781WAT     H229886   6.983   2.632   4.778
 9782WAT      O29887   6.795   2.387   3.999
 9782WAT     H129888   6.808   2.303   4.053
 9782WAT     H229889   6.766   2.461   4.059
 9783WAT      O29890   5.893   2.075   4.955
 9783WAT     H129891   5.870   2.112   5.045
 9783WAT     H229892   5.863   1.980   4.949
 9784WAT      O29893   5.623   3.172   5.006
 9784WAT     H129894   5.676   3.123   5.074
 9784WAT     H229895   5.645   3.270   5.011
 9785WAT      O29896   6.318   2.496   4.788
 9785WAT     H129897   6.377   2.470   4.712
 9785WAT     H229898   6.290   2.592   4.777
 9786WAT      O29899   5.893   1.925   4.342
 9786WAT     H129900   5.882   2.019   4.375
 9786WAT     H229901   5.888   1.862   4.419
 9787WAT      O29902   7.208   2.229   4.098
 9787WAT     H129903   7.210   2.153   4.162
 9787WAT     H229904   7.160   2.306   4.138
 9788WAT      O29905   6.609   2.628   4.690
 9788WAT     H129906   6.624   2.649   4.786
 9788WAT     H229907   6.579   2.533   4.681
 9789WAT      O29908   6.566   3.435   5.424
 9789WAT     H129909   6.546   3.479   5.336
 9789WAT     H229910   6.605   3.344   5.408
 9790WAT      O29911   5.936   2.760   5.528
 9790WAT     H129912   6.012   2.804   5.576
 9790WAT     H229913   5.971   2.713   5.446
 9791WAT      O29914   6.889   2.700   3.766
 9791WAT     H129915   6.923   2.607   3.781
 9791WAT     H229916   6.907   2.727   3.671
 9792WAT      O29917   6.654   3.195   4.573
 9792WAT     H129918   6.661   3.111   4.518
 9792WAT     H229919   6.716   3.264   4.537
 9793WAT      O29920   5.905   2.672   4.673
 9793WAT     H129921   5.998   2.708   4.678
 9793WAT     H229922   5.899   2.587   4.725
 9794WAT      O29923   5.925   2.371   4.730
 9794WAT     H129924   5.873   2.288   4.713
 9794WAT     H229925   6.002   2.376   4.666
 9795WAT      O29926   6.724   2.242   5.402
 9795WAT     H129927   6.679   2.305   5.466
 9795WAT     H229928   6.817   2.273   5.385
 9796WAT      O29929   6.746   2.069   5.201
 9796WAT     H129930   6.746   2.133   5.278
 9796WAT     H229931   6.774   2.117   5.118
 9797WAT      O29932   5.594   3.188   3.924
 9797WAT     H129933   5.501   3.209   3.893
 9797WAT     H229934   5.604   3.089   3.937
 9798WAT      O29935   5.674   3.663   4.651
 9798WAT     H129936   5.632   3.577   4.624
 9798WAT     H229937   5.768   3.666   4.617
 9799WAT      O29938   6.090   3.430   4.634
 9799WAT     H129939   6.156   3.504   4.643
 9799WAT     H229940   6.134   3.351   4.592
 9800WAT      O29941   6.588   2.658   4.962
 9800WAT     H129942   6.629   2.626   5.048
 9800WAT     H229943   6.492   2.631   4.959
 9801WAT      O29944   5.626   2.406   4.838
 9801WAT     H129945   5.711   2.373   4.797
 9801WAT     H229946   5.639   2.421   4.936
 9802WAT      O29947   5.775   2.382   5.446
 9802WAT     H129948   5.834   2.342   5.376
 9802WAT     H229949   5.717   2.453   5.405
 9803WAT      O29950   6.401   2.434   4.049
 9803WAT     H129951   6.408   2.345   4.003
 9803WAT     H229952   6.307   2.468   4.041
 9804WAT      O29953   5.838   3.426   5.468
 9804WAT     H129954   5.808   3.483   5.544
 9804WAT     H229955   5.831   3.329   5.494
 9805WAT      O29956   6.257   2.326   4.993
 9805WAT     H129957   6.223   2.237   4.963
 9805WAT     H229958   6.283   2.380   4.913
 9806WAT      O29959   6.516   3.540   5.189
 9806WAT     H129960   6.492   3.522   5.094
 9806WAT     H229961   6.546   3.634   5.199
 9807WAT      O29962   6.059   2.362   3.915
 9807WAT     H129963   6.120   2.442   3.919
 9807WAT     H229964   5.964   2.393   3.922
 9808WAT      O29965   5.745   2.999   5.190
 9808WAT     H129966   5.767   2.938   5.266
 9808WAT     H229967   5.755   2.950   5.104
 9809WAT      O29968   6.933   2.921   4.958
 9809WAT     H129969   6.957   2.858   4.884
 9809WAT     H229970   6.843   2.961   4.940
 9810WAT      O29971   6.888   2.717   4.033
 9810WAT     H129972   6.802   2.686   4.075
 9810WAT     H229973   6.884   2.703   3.934
 9811WAT      O29974   6.838   3.593   4.852
 9811WAT     H129975   6.922   3.598   4.798
 9811WAT     H229976   6.815   3.497   4.870
 9812WAT      O29977   5.669   3.120   4.746
 9812WAT     H129978   5.664   3.119   4.846
 9812WAT     H229979   5.586   3.079   4.708
 9813WAT      O29980   6.274   3.524   5.440
 9813WAT     H129981   6.218   3.605   5.449
 9813WAT     H229982   6.326   3.528   5.354
 9814WAT      O29983   6.974   3.435   4.201
 9814WAT     H129984   7.041   3.447   4.127
 9814WAT     H229985   6.934   3.524   4.224
 9815WAT      O29986   5.716   3.656   5.575
 9815WAT     H129987   5.675   3.582   5.628
 9815WAT     H229988   5.780   3.707   5.633
 9816WAT      O29989   6.866   2.789   4.396
 9816WAT     H129990   6.926   2.708   4.398
 9816WAT     H229991   6.906   2.858   4.336
 9817WAT      O29992   6.416   3.135   5.146
 9817WAT     H129993   6.411   3.168   5.241
 9817WAT     H229994   6.330   3.154   5.100
 9818WAT      O29995   6.258   3.478   3.878
 9818WAT     H129996   6.267   3.488   3.779
 9818WAT     H229997   6.218   3.389   3.899
 9819WAT      O29998   5.849   2.188   4.444
 9819WAT     H129999   5.770   2.239   4.410
 9819WAT     H230000   5.840   2.173   4.542
 9820WAT      O30001   6.780   3.474   3.755
 9820WAT     H130002   6.786   3.381   3.792
 9820WAT     H230003   6.721   3.474   3.675
 9821WAT      O30004   6.408   2.864   5.096
 9821WAT     H130005   6.448   2.863   5.004
 9821WAT     H230006   6.418   2.956   5.136
 9822WAT      O30007   6.502   2.772   4.015
 9822WAT     H130008   6.565   2.810   3.947
 9822WAT     H230009   6.542   2.689   4.054
 9823WAT      O30010   5.958   3.150   5.214
 9823WAT     H130011   5.945   3.243   5.180
 9823WAT     H230012   5.874   3.098   5.201
 9824WAT      O30013   6.625   2.960   4.420
 9824WAT     H130014   6.555   2.913   4.474
 9824WAT     H230015   6.684   2.892   4.377
 9825WAT      O30016   6.600   2.098   4.695
 9825WAT     H130017   6.592   2.062   4.602
 9825WAT     H230018   6.598   2.022   4.760
 9826WAT      O30019   6.176   3.349   4.215
 9826WAT     H130020   6.218   3.291   4.145
 9826WAT     H230021   6.132   3.428   4.171
 9827WAT      O30022   5.841   3.210   4.014
 9827WAT     H130023   5.745   3.211   3.987
 9827WAT     H230024   5.853   3.263   4.098
 9828WAT      O30025   5.691   2.875   5.450
 9828WAT     H130026   5.614   2.842   5.504
 9828WAT     H230027   5.776   2.845   5.492
 9829WAT      O30028   6.258   2.065   5.213
 9829WAT     H130029   6.348   2.049   5.173
 9829WAT     H230030   6.266   2.070   5.312
 9830WAT      O30031   5.661   2.207   3.757
 9830WAT     H130032   5.569   2.179   3.728
 9830WAT     H230033   5.692   2.284   3.701
 9831WAT      O30034   5.658   2.028   4.042
 9831WAT     H130035   5.641   2.111   3.988
 9831WAT     H230036   5.748   1.991   4.020
 9832WAT      O30037   6.199   2.704   5.155
 9832WAT     H130038   6.255   2.785   5.138
 9832WAT     H230039   6.258   2.624   5.158
 9833WAT      O30040   6.302   2.427   5.432
 9833WAT     H130041   6.321   2.492   5.506
 9833WAT     H230042   6.362   2.347   5.441
 9834WAT      O30043   7.036   3.082   5.357
 9834WAT     H130044   7.027   3.072   5.456
 9834WAT     H230045   7.132   3.075   5.331
 9835WAT      O30046   5.976   3.603   5.284
 9835WAT     H130047   5.885   3.644   5.282
 9835WAT     H230048   5.969   3.509   5.316
 9836WAT      O30049   6.811   2.187   4.173
 9836WAT     H130050   6.876   2.113   4.162
 9836WAT     H230051   6.831   2.237   4.257
 9837WAT      O30052   6.180   2.607   4.376
 9837WAT     H130053   6.230   2.692   4.357
 9837WAT     H230054   6.092   2.609   4.328
 9838WAT      O30055   6.445   3.236   3.740
 9838WAT     H130056   6.399   3.251   3.828
 9838WAT     H230057   6.489   3.321   3.710
 9839WAT      O30058   6.247   3.652   4.677
 9839WAT     H130059   6.201   3.740   4.664
 9839WAT     H230060   6.346   3.664   4.670
 9840WAT      O30061   6.445   2.818   4.585
 9840WAT     H130062   6.499   2.749   4.633
 9840WAT     H230063   6.413   2.887   4.651
 9841WAT      O30064   6.669   2.846   3.811
 9841WAT     H130065   6.646   2.899   3.729
 9841WAT     H230066   6.750   2.790   3.792
 9842WAT      O30067   5.807   3.176   5.568
 9842WAT     H130068   5.742   3.103   5.547
 9842WAT     H230069   5.811   3.190   5.666
 9843WAT      O30070   5.665   3.102   4.377
 9843WAT     H130071   5.664   3.055   4.465
 9843WAT     H230072   5.747   3.074   4.326
 9844WAT      O30073   6.258   3.253   5.348
 9844WAT     H130074   6.180   3.203   5.386
 9844WAT     H230075   6.255   3.348   5.379
 9845WAT      O30076   6.014   2.286   4.244
 9845WAT     H130077   6.044   2.214   4.182
 9845WAT     H230078   5.975   2.246   4.327
 9846WAT      O30079   5.903   2.409   5.004
 9846WAT     H130080   5.941   2.350   5.076
 9846WAT     H230081   5.943   2.383   4.916
 9847WAT      O30082   6.398   3.448   4.411
 9847WAT     H130083   6.430   3.458   4.317
 9847WAT     H230084   6.319   3.386   4.413
 9848WAT      O30085   7.010   2.076   4.836
 9848WAT     H130086   7.062   2.011   4.891
 9848WAT     H230087   6.961   2.139   4.897
 9849WAT      O30088   6.587   1.896   4.878
 9849WAT     H130089   6.524   1.824   4.847
 9849WAT     H230090   6.680   1.860   4.878
 9850WAT      O30091   6.356   3.192   4.025
 9850WAT     H130092   6.310   3.105   4.042
 9850WAT     H230093   6.447   3.189   4.066
 9851WAT      O30094   6.204   3.429   5.008
 9851WAT     H130095   6.199   3.511   5.065
 9851WAT     H230096   6.293   3.426   4.963
 9852WAT      O30097   6.938   1.914   3.892
 9852WAT     H130098   6.973   1.873   3.808
 9852WAT     H230099   6.848   1.876   3.912
 9853WAT      O30100   5.625   2.939   4.024
 9853WAT     H130101   5.724   2.928   4.015
 9853WAT     H230102   5.585   2.853   4.056
 9854WAT      O30103   6.461   3.508   4.061
 9854WAT     H130104   6.384   3.473   4.007
 9854WAT     H230105   6.429   3.579   4.123
 9855WAT      O30106   5.816   2.490   5.699
 9855WAT     H130107   5.723   2.488   5.736
 9855WAT     H230108   5.817   2.451   5.607
 9856WAT      O30109   5.811   2.137   6.582
 9856WAT     H130110   5.846   2.120   6.674
 9856WAT     H230111   5.723   2.092   6.570
 9857WAT      O30112   5.605   2.230   6.233
 9857WAT     H130113   5.523   2.273   6.272
 9857WAT     H230114   5.577   2.157   6.170
 9858WAT      O30115   6.155   3.137   6.751
 9858WAT     H130116   6.062   3.130   6.714
 9858WAT     H230117   6.166   3.226   6.795
 9859WAT      O30118   7.141   3.373   6.289
 9859WAT     H130119   7.084   3.357   6.370
 9859WAT     H230120   7.082   3.383   6.209
 9860WAT      O30121   6.721   2.565   6.303
 9860WAT     H130122   6.778   2.643   6.278
 9860WAT     H230123   6.661   2.591   6.379
 9861WAT      O30124   6.354   3.006   6.609
 9861WAT     H130125   6.276   3.023   6.669
 9861WAT     H230126   6.388   3.093   6.573
 9862WAT      O30127   6.271   2.874   6.251
 9862WAT     H130128   6.340   2.858   6.321
 9862WAT     H230129   6.198   2.931   6.289
 9863WAT      O30130   5.921   3.297   6.647
 9863WAT     H130131   5.843   3.266   6.594
 9863WAT     H230132   5.979   3.355   6.590
 9864WAT      O30133   5.817   3.575   6.069
 9864WAT     H130134   5.851   3.652   6.123
 9864WAT     H230135   5.861   3.575   5.979
 9865WAT      O30136   5.816   3.296   6.124
 9865WAT     H130137   5.790   3.392   6.124
 9865WAT     H230138   5.745   3.242   6.169
 9866WAT      O30139   5.826   2.953   6.472
 9866WAT     H130140   5.840   2.869   6.524
 9866WAT     H230141   5.771   3.017   6.527
 9867WAT      O30142   6.206   3.648   7.025
 9867WAT     H130143   6.114   3.631   7.060
 9867WAT     H230144   6.234   3.740   7.051
 9868WAT      O30145   6.192   2.826   5.709
 9868WAT     H130146   6.199   2.910   5.655
 9868WAT     H230147   6.238   2.839   5.797
 9869WAT      O30148   7.180   1.976   7.066
 9869WAT     H130149   7.162   2.043   6.994
 9869WAT     H230150   7.177   2.022   7.155
 9870WAT      O30151   5.708   2.505   6.149
 9870WAT     H130152   5.663   2.417   6.166
 9870WAT     H230153   5.707   2.559   6.233
 9871WAT      O30154   5.613   3.458   5.703
 9871WAT     H130155   5.594   3.362   5.724
 9871WAT     H230156   5.580   3.516   5.778
 9872WAT      O30157   6.199   3.227   6.312
 9872WAT     H130158   6.150   3.140   6.321
 9872WAT     H230159   6.176   3.270   6.225
 9873WAT      O30160   6.879   3.090   7.009
 9873WAT     H130161   6.916   3.017   6.951
 9873WAT     H230162   6.931   3.095   7.094
 9874WAT      O30163   6.395   1.866   6.088
 9874WAT     H130164   6.435   1.957   6.079
 9874WAT     H230165   6.295   1.874   6.094
 9875WAT      O30166   5.783   2.838   6.850
 9875WAT     H130167   5.872   2.793   6.836
 9875WAT     H230168   5.710   2.773   6.831
 9876WAT      O30169   6.184   2.591   5.856
 9876WAT     H130170   6.208   2.660   5.788
 9876WAT     H230171   6.106   2.624   5.910
 9877WAT      O30172   6.867   2.207   6.530
 9877WAT     H130173   6.781   2.157   6.517
 9877WAT     H230174   6.929   2.153   6.586
 9878WAT      O30175   6.393   2.467   7.051
 9878WAT     H130176   6.346   2.464   7.140
 9878WAT     H230177   6.342   2.412   6.985
 9879WAT      O30178   6.577   2.272   6.828
 9879WAT     H130179   6.500   2.306   6.882
 9879WAT     H230180   6.543   2.221   6.749
 9880WAT      O30181   6.627   2.563   6.015
 9880WAT     H130182   6.653   2.559   6.111
 9880WAT     H230183   6.542   2.512   6.001
 9881WAT      O30184   5.662   2.673   6.375
 9881WAT     H130185   5.761   2.661   6.384
 9881WAT     H230186   5.638   2.768   6.396
 9882WAT      O30187   5.716   3.683   7.157
 9882WAT     H130188   5.706   3.668   7.256
 9882WAT     H230189   5.630   3.719   7.121
 9883WAT      O30190   6.451   2.210   5.781
 9883WAT     H130191   6.510   2.273   5.732
 9883WAT     H230192   6.470   2.116   5.752
 9884WAT      O30193   6.948   3.006   6.131
 9884WAT     H130194   7.031   2.977   6.083
 9884WAT     H230195   6.899   3.073   6.075
 9885WAT      O30196   6.136   2.058   6.471
 9885WAT     H130197   6.131   2.053   6.571
 9885WAT     H230198   6.138   2.154   6.442
 9886WAT      O30199   6.594   3.318   6.063
 9886WAT     H130200   6.548   3.390   6.011
 9886WAT     H230201   6.590   3.338   6.161
 9887WAT      O30202   5.937   3.663   6.439
 9887WAT     H130203   5.987   3.577   6.445
 9887WAT     H230204   6.002   3.740   6.436
 9888WAT      O30205   5.907   2.805   5.828
 9888WAT     H130206   5.989   2.844   5.786
 9888WAT     H230207   5.880   2.723   5.779
 9889WAT      O30208   6.697   3.638   5.823
 9889WAT     H130209   6.637   3.576   5.873
 9889WAT     H230210   6.728   3.594   5.738
 9890WAT      O30211   6.050   3.605   5.909
 9890WAT     H130212   6.083   3.644   5.995
 9890WAT     H230213   6.126   3.598   5.844
 9891WAT      O30214   5.835   3.647   6.827
 9891WAT     H130215   5.892   3.582   6.877
 9891WAT     H230216   5.819   3.614   6.734
 9892WAT      O30217   6.526   3.560   6.490
 9892WAT     H130218   6.606   3.503   6.511
 9892WAT     H230219   6.477   3.520   6.413
 9893WAT      O30220   5.968   2.562   6.066
 9893WAT     H130221   6.013   2.472   6.063
 9893WAT     H230222   5.874   2.551   6.099
 9894WAT      O30223   6.200   1.984   5.703
 9894WAT     H130224   6.298   1.962   5.710
 9894WAT     H230225   6.169   1.967   5.610
 9895WAT      O30226   6.474   3.376   6.781
 9895WAT     H130227   6.451   3.351   6.687
 9895WAT     H230228   6.535   3.307   6.820
 9896WAT      O30229   6.389   3.264   6.510
 9896WAT     H130230   6.479   3.278   6.468
 9896WAT     H230231   6.318   3.266   6.439
 9897WAT      O30232   6.508   2.365   6.485
 9897WAT     H130233   6.483   2.356   6.389
 9897WAT     H230234   6.556   2.283   6.516
 9898WAT      O30235   6.125   1.926   6.098
 9898WAT     H130236   6.044   1.927   6.156
 9898WAT     H230237   6.128   2.009   6.043
 9899WAT      O30238   7.020   3.050   5.627
 9899WAT     H130239   7.052   2.974   5.684
 9899WAT     H230240   6.928   3.077   5.657
 9900WAT      O30241   5.883   1.897   5.757
 9900WAT     H130242   5.932   1.981   5.736
 9900WAT     H230243   5.945   1.832   5.802
 9901WAT      O30244   6.521   2.098   6.066
 9901WAT     H130245   6.473   2.139   5.988
 9901WAT     H230246   6.620   2.096   6.047
 9902WAT      O30247   6.813   3.432   6.379
 9902WAT     H130248   6.834   3.506   6.314
 9902WAT     H230249   6.881   3.432   6.452
 9903WAT      O30250   6.045   3.014   6.327
 9903WAT     H130251   5.974   2.987   6.392
 9903WAT     H230252   6.019   2.986   6.234
 9904WAT      O30253   6.857   3.659   6.177
 9904WAT     H130254   6.901   3.723   6.113
 9904WAT     H230255   6.807   3.711   6.247
 9905WAT      O30256   6.618   2.411   5.602
 9905WAT     H130257   6.577   2.493   5.563
 9905WAT     H230258   6.682   2.437   5.675
 9906WAT      O30259   6.147   2.084   6.733
 9906WAT     H130260   6.185   2.000   6.770
 9906WAT     H230261   6.059   2.103   6.777
 9907WAT      O30262   6.452   2.316   6.228
 9907WAT     H130263   6.420   2.388   6.166
 9907WAT     H230264   6.476   2.235   6.175
 9908WAT      O30265   6.603   1.901   6.339
 9908WAT     H130266   6.531   1.906   6.270
 9908WAT     H230267   6.579   1.832   6.408
 9909WAT      O30268   6.074   3.247   5.760
 9909WAT     H130269   5.987   3.232   5.807
 9909WAT     H230270   6.057   3.273   5.665
 9910WAT      O30271   6.113   2.118   5.914
 9910WAT     H130272   6.140   2.059   5.839
 9910WAT     H230273   6.113   2.213   5.883
 9911WAT      O30274   7.178   3.491   7.211
 9911WAT     H130275   7.205   3.525   7.121
 9911WAT     H230276   7.257   3.453   7.257
 9912WAT      O30277   6.697   3.057   6.686
 9912WAT     H130278   6.657   3.101   6.767
 9912WAT     H230279   6.656   3.094   6.603
 9913WAT      O30280   6.291   2.912   5.954
 9913WAT     H130281   6.277   2.919   6.053
 9913WAT     H230282   6.375   2.861   5.936
 9914WAT      O30283   5.996   2.675   6.837
 9914WAT     H130284   6.082   2.687   6.887
 9914WAT     H230285   5.954   2.588   6.864
 9915WAT      O30286   6.860   2.248   6.848
 9915WAT     H130287   6.881   2.322   6.912
 9915WAT     H230288   6.771   2.265   6.805
 9916WAT      O30289   5.650   3.426   6.917
 9916WAT     H130290   5.604   3.508   6.883
 9916WAT     H230291   5.748   3.445   6.926
 9917WAT      O30292   5.953   2.962   6.087
 9917WAT     H130293   5.946   3.045   6.031
 9917WAT     H230294   5.957   2.882   6.027
 9918WAT      O30295   6.152   2.399   6.451
 9918WAT     H130296   6.164   2.465   6.377
 9918WAT     H230297   6.198   2.433   6.534
 9919WAT      O30298   6.838   3.210   5.974
 9919WAT     H130299   6.888   3.287   6.014
 9919WAT     H230300   6.743   3.212   6.006
 9920WAT      O30301   6.858   3.307   6.728
 9920WAT     H130302   6.905   3.320   6.815
 9920WAT     H230303   6.792   3.233   6.737
 9921WAT      O30304   5.940   3.372   6.915
 9921WAT     H130305   5.919   3.328   6.828
 9921WAT     H230306   6.037   3.398   6.918
 9922WAT      O30307   6.159   2.732   6.615
 9922WAT     H130308   6.203   2.821   6.606
 9922WAT     H230309   6.096   2.732   6.692
 9923WAT      O30310   6.946   2.724   6.631
 9923WAT     H130311   6.871   2.724   6.565
 9923WAT     H230312   6.983   2.632   6.640
 9924WAT      O30313   6.795   2.387   5.861
 9924WAT     H130314   6.808   2.303   5.915
 9924WAT     H230315   6.766   2.461   5.921
 9925WAT      O30316   5.893   2.075   6.817
 9925WAT     H130317   5.870   2.112   6.907
 9925WAT     H230318   5.863   1.980   6.811
 9926WAT      O30319   5.623   3.172   6.868
 9926WAT     H130320   5.676   3.123   6.936
 9926WAT     H230321   5.645   3.270   6.873
 9927WAT      O30322   6.318   2.496   6.650
 9927WAT     H130323   6.377   2.470   6.574
 9927WAT     H230324   6.290   2.592   6.639
 9928WAT      O30325   5.893   1.925   6.204
 9928WAT     H130326   5.882   2.019   6.237
 9928WAT     H230327   5.888   1.862   6.281
 9929WAT      O30328   7.208   2.229   5.960
 9929WAT     H130329   7.210   2.153   6.024
 9929WAT     H230330   7.160   2.306   6.000
 9930WAT      O30331   6.609   2.628   6.552
 9930WAT     H130332   6.624   2.649   6.648
 9930WAT     H230333   6.579   2.533   6.543
 9931WAT      O30334   6.889   2.700   5.628
 9931WAT     H130335   6.923   2.607   5.643
 9931WAT     H230336   6.907   2.727   5.533
 9932WAT      O30337   6.654   3.195   6.435
 9932WAT     H130338   6.661   3.111   6.380
 9932WAT     H230339   6.716   3.264   6.399
 9933WAT      O30340   5.905   2.672   6.535
 9933WAT     H130341   5.998   2.708   6.540
 9933WAT     H230342   5.899   2.587   6.587
 9934WAT      O30343   5.925   2.371   6.592
 9934WAT     H130344   5.873   2.288   6.575
 9934WAT     H230345   6.002   2.376   6.528
 9935WAT      O30346   6.746   2.069   7.063
 9935WAT     H130347   6.746   2.133   7.140
 9935WAT     H230348   6.774   2.117   6.980
 9936WAT      O30349   5.594   3.188   5.786
 9936WAT     H130350   5.501   3.209   5.755
 9936WAT     H230351   5.604   3.089   5.799
 9937WAT      O30352   5.674   3.663   6.513
 9937WAT     H130353   5.632   3.577   6.486
 9937WAT     H230354   5.768   3.666   6.479
 9938WAT      O30355   6.090   3.430   6.496
 9938WAT     H130356   6.156   3.504   6.505
 9938WAT     H230357   6.134   3.351   6.454
 9939WAT      O30358   6.588   2.658   6.824
 9939WAT     H130359   6.629   2.626   6.910
 9939WAT     H230360   6.492   2.631   6.821
 9940WAT      O30361   5.626   2.406   6.700
 9940WAT     H130362   5.711   2.373   6.659
 9940WAT     H230363   5.639   2.421   6.798
 9941WAT      O30364   6.401   2.434   5.911
 9941WAT     H130365   6.408   2.345   5.865
 9941WAT     H230366   6.307   2.468   5.903
 9942WAT      O30367   6.257   2.326   6.855
 9942WAT     H130368   6.223   2.237   6.825
 9942WAT     H230369   6.283   2.380   6.775
 9943WAT      O30370   6.516   3.540   7.051
 9943WAT     H130371   6.492   3.522   6.956
 9943WAT     H230372   6.546   3.634   7.061
 9944WAT      O30373   6.059   2.362   5.777
 9944WAT     H130374   6.120   2.442   5.781
 9944WAT     H230375   5.964   2.393   5.784
 9945WAT      O30376   5.745   2.999   7.052
 9945WAT     H130377   5.767   2.938   7.128
 9945WAT     H230378   5.755   2.950   6.966
 9946WAT      O30379   6.933   2.921   6.820
 9946WAT     H130380   6.957   2.858   6.746
 9946WAT     H230381   6.843   2.961   6.802
 9947WAT      O30382   6.888   2.717   5.895
 9947WAT     H130383   6.802   2.686   5.937
 9947WAT     H230384   6.884   2.703   5.796
 9948WAT      O30385   6.838   3.593   6.714
 9948WAT     H130386   6.922   3.598   6.660
 9948WAT     H230387   6.815   3.497   6.732
 9949WAT      O30388   5.669   3.120   6.608
 9949WAT     H130389   5.664   3.119   6.708
 9949WAT     H230390   5.586   3.079   6.570
 9950WAT      O30391   6.974   3.435   6.063
 9950WAT     H130392   7.041   3.447   5.989
 9950WAT     H230393   6.934   3.524   6.086
 9951WAT      O30394   6.866   2.789   6.258
 9951WAT     H130395   6.926   2.708   6.260
 9951WAT     H230396   6.906   2.858   6.198
 9952WAT      O30397   6.258   3.478   5.740
 9952WAT     H130398   6.267   3.488   5.641
 9952WAT     H230399   6.218   3.389   5.761
 9953WAT      O30400   5.849   2.188   6.306
 9953WAT     H130401   5.770   2.239   6.272
 9953WAT     H230402   5.840   2.173   6.404
 9954WAT      O30403   6.780   3.474   5.617
 9954WAT     H130404   6.786   3.381   5.654
 9954WAT     H230405   6.721   3.474   5.537
 9955WAT      O30406   6.408   2.864   6.958
 9955WAT     H130407   6.448   2.863   6.866
 9955WAT     H230408   6.418   2.956   6.998
 9956WAT      O30409   6.502   2.772   5.877
 9956WAT     H130410   6.565   2.810   5.809
 9956WAT     H230411   6.542   2.689   5.916
 9957WAT      O30412   6.625   2.960   6.282
 9957WAT     H130413   6.555   2.913   6.336
 9957WAT     H230414   6.684   2.892   6.239
 9958WAT      O30415   6.600   2.098   6.557
 9958WAT     H130416   6.592   2.062   6.464
 9958WAT     H230417   6.598   2.022   6.622
 9959WAT      O30418   6.176   3.349   6.077
 9959WAT     H130419   6.218   3.291   6.007
 9959WAT     H230420   6.132   3.428   6.033
 9960WAT      O30421   5.841   3.210   5.876
 9960WAT     H130422   5.745   3.211   5.849
 9960WAT     H230423   5.853   3.263   5.960
 9961WAT      O30424   6.258   2.065   7.075
 9961WAT     H130425   6.348   2.049   7.035
 9961WAT     H230426   6.266   2.070   7.174
 9962WAT      O30427   5.661   2.207   5.619
 9962WAT     H130428   5.569   2.179   5.590
 9962WAT     H230429   5.692   2.284   5.563
 9963WAT      O30430   5.658   2.028   5.904
 9963WAT     H130431   5.641   2.111   5.850
 9963WAT     H230432   5.748   1.991   5.882
 9964WAT      O30433   5.976   3.603   7.146
 9964WAT     H130434   5.885   3.644   7.144
 9964WAT     H230435   5.969   3.509   7.178
 9965WAT      O30436   6.811   2.187   6.035
 9965WAT     H130437   6.876   2.113   6.024
 9965WAT     H230438   6.831   2.237   6.119
 9966WAT      O30439   6.180   2.607   6.238
 9966WAT     H130440   6.230   2.692   6.219
 9966WAT     H230441   6.092   2.609   6.190
 9967WAT      O30442   6.445   3.236   5.602
 9967WAT     H130443   6.399   3.251   5.690
 9967WAT     H230444   6.489   3.321   5.572
 9968WAT      O30445   6.247   3.652   6.539
 9968WAT     H130446   6.201   3.740   6.526
 9968WAT     H230447   6.346   3.664   6.532
 9969WAT      O30448   6.445   2.818   6.447
 9969WAT     H130449   6.499   2.749   6.495
 9969WAT     H230450   6.413   2.887   6.513
 9970WAT      O30451   6.669   2.846   5.673
 9970WAT     H130452   6.646   2.899   5.591
 9970WAT     H230453   6.750   2.790   5.654
 9971WAT      O30454   5.665   3.102   6.239
 9971WAT     H130455   5.664   3.055   6.327
 9971WAT     H230456   5.747   3.074   6.188
 9972WAT      O30457   6.014   2.286   6.106
 9972WAT     H130458   6.044   2.214   6.044
 9972WAT     H230459   5.975   2.246   6.189
 9973WAT      O30460   5.903   2.409   6.866
 9973WAT     H130461   5.941   2.350   6.938
 9973WAT     H230462   5.943   2.383   6.778
 9974WAT      O30463   6.398   3.448   6.273
 9974WAT     H130464   6.430   3.458   6.179
 9974WAT     H230465   6.319   3.386   6.275
 9975WAT      O30466   7.010   2.076   6.698
 9975WAT     H130467   7.062   2.011   6.753
 9975WAT     H230468   6.961   2.139   6.759
 9976WAT      O30469   6.587   1.896   6.740
 9976WAT     H130470   6.524   1.824   6.709
 9976WAT     H230471   6.680   1.860   6.740
 9977WAT      O30472   6.356   3.192   5.887
 9977WAT     H130473   6.310   3.105   5.904
 9977WAT     H230474   6.447   3.189   5.928
 9978WAT      O30475   6.204   3.429   6.870
 9978WAT     H130476   6.199   3.511   6.927
 9978WAT     H230477   6.293   3.426   6.825
 9979WAT      O30478   6.938   1.914   5.754
 9979WAT     H130479   6.973   1.873   5.670
 9979WAT     H230480   6.848   1.876   5.774
 9980WAT      O30481   5.625   2.939   5.886
 9980WAT     H130482   5.724   2.928   5.877
 9980WAT     H230483   5.585   2.853   5.918
 9981WAT      O30484   6.461   3.508   5.923
 9981WAT     H130485   6.384   3.473   5.869
 9981WAT     H230486   6.429   3.579   5.985
 9982WAT      O30487   5.816   4.352   0.113
 9982WAT     H130488   5.723   4.350   0.150
 9982WAT     H230489   5.817   4.313   0.021
 9983WAT      O30490   5.811   3.999   0.996
 9983WAT     H130491   5.846   3.982   1.088
 9983WAT     H230492   5.723   3.954   0.984
 9984WAT      O30493   5.605   4.092   0.647
 9984WAT     H130494   5.523   4.135   0.686
 9984WAT     H230495   5.577   4.019   0.584
 9985WAT      O30496   6.155   4.999   1.165
 9985WAT     H130497   6.062   4.992   1.128
 9985WAT     H230498   6.166   5.088   1.209
 9986WAT      O30499   7.141   5.235   0.703
 9986WAT     H130500   7.084   5.219   0.784
 9986WAT     H230501   7.082   5.245   0.623
 9987WAT      O30502   6.721   4.427   0.717
 9987WAT     H130503   6.778   4.505   0.692
 9987WAT     H230504   6.661   4.453   0.793
 9988WAT      O30505   6.354   4.868   1.023
 9988WAT     H130506   6.276   4.885   1.083
 9988WAT     H230507   6.388   4.955   0.987
 9989WAT      O30508   6.436   4.522   1.823
 9989WAT     H130509   6.432   4.598   1.888
 9989WAT     H230510   6.458   4.558   1.732
 9990WAT      O30511   6.271   4.736   0.665
 9990WAT     H130512   6.340   4.720   0.735
 9990WAT     H230513   6.198   4.793   0.703
 9991WAT      O30514   6.272   4.885   1.803
 9991WAT     H130515   6.332   4.964   1.817
 9991WAT     H230516   6.186   4.916   1.762
 9992WAT      O30517   5.921   5.159   1.061
 9992WAT     H130518   5.843   5.128   1.008
 9992WAT     H230519   5.979   5.217   1.004
 9993WAT      O30520   6.024   4.116   1.499
 9993WAT     H130521   6.106   4.060   1.508
 9993WAT     H230522   5.943   4.058   1.503
 9994WAT      O30523   5.817   5.437   0.483
 9994WAT     H130524   5.851   5.514   0.537
 9994WAT     H230525   5.861   5.437   0.393
 9995WAT      O30526   6.713   5.065   1.690
 9995WAT     H130527   6.760   5.065   1.778
 9995WAT     H230528   6.665   4.978   1.679
 9996WAT      O30529   5.816   5.158   0.538
 9996WAT     H130530   5.790   5.254   0.538
 9996WAT     H230531   5.745   5.104   0.583
 9997WAT      O30532   5.826   4.815   0.886
 9997WAT     H130533   5.840   4.731   0.938
 9997WAT     H230534   5.771   4.879   0.941
 9998WAT      O30535   6.206   5.510   1.439
 9998WAT     H130536   6.114   5.493   1.474
 9998WAT     H230537   6.234   5.602   1.465
 9999WAT      O30538   6.192   4.688   0.123
 9999WAT     H130539   6.199   4.772   0.069
 9999WAT     H230540   6.238   4.701   0.211
10000WAT      O30541   5.708   4.367   0.563
10000WAT     H130542   5.663   4.279   0.580
10000WAT     H230543   5.707   4.421   0.647
10001WAT      O30544   5.613   5.320   0.117
10001WAT     H130545   5.594   5.224   0.138
10001WAT     H230546   5.580   5.378   0.192
10002WAT      O30547   5.699   4.461   1.597
10002WAT     H130548   5.787   4.448   1.642
10002WAT     H230549   5.686   4.558   1.575
10003WAT      O30550   6.199   5.089   0.726
10003WAT     H130551   6.150   5.002   0.735
10003WAT     H230552   6.176   5.132   0.639
10004WAT      O30553   6.879   4.952   1.423
10004WAT     H130554   6.916   4.879   1.365
10004WAT     H230555   6.931   4.957   1.508
10005WAT      O30556   6.395   3.728   0.502
10005WAT     H130557   6.435   3.819   0.493
10005WAT     H230558   6.295   3.736   0.508
10006WAT      O30559   5.783   4.700   1.264
10006WAT     H130560   5.872   4.655   1.250
10006WAT     H230561   5.710   4.635   1.245
10007WAT      O30562   6.773   5.516   1.616
10007WAT     H130563   6.797   5.576   1.540
10007WAT     H230564   6.780   5.421   1.586
10008WAT      O30565   5.903   3.975   1.801
10008WAT     H130566   5.974   4.046   1.807
10008WAT     H230567   5.815   4.014   1.829
10009WAT      O30568   6.184   4.453   0.270
10009WAT     H130569   6.208   4.522   0.202
10009WAT     H230570   6.106   4.486   0.324
10010WAT      O30571   6.867   4.069   0.944
10010WAT     H130572   6.781   4.019   0.931
10010WAT     H230573   6.929   4.015   1.000
10011WAT      O30574   6.393   4.329   1.465
10011WAT     H130575   6.346   4.326   1.554
10011WAT     H230576   6.342   4.274   1.399
10012WAT      O30577   6.980   4.193   1.674
10012WAT     H130578   6.960   4.236   1.762
10012WAT     H230579   7.058   4.131   1.683
10013WAT      O30580   6.559   4.614   1.572
10013WAT     H130581   6.605   4.530   1.543
10013WAT     H230582   6.503   4.648   1.497
10014WAT      O30583   6.577   4.134   1.242
10014WAT     H130584   6.500   4.168   1.296
10014WAT     H230585   6.543   4.083   1.163
10015WAT      O30586   6.627   4.425   0.429
10015WAT     H130587   6.653   4.421   0.525
10015WAT     H230588   6.542   4.374   0.415
10016WAT      O30589   5.662   4.535   0.789
10016WAT     H130590   5.761   4.523   0.798
10016WAT     H230591   5.638   4.630   0.810
10017WAT      O30592   5.716   5.545   1.571
10017WAT     H130593   5.706   5.530   1.670
10017WAT     H230594   5.630   5.581   1.535
10018WAT      O30595   6.451   4.072   0.195
10018WAT     H130596   6.510   4.135   0.146
10018WAT     H230597   6.470   3.978   0.166
10019WAT      O30598   6.948   4.868   0.545
10019WAT     H130599   7.031   4.839   0.497
10019WAT     H230600   6.899   4.935   0.489
10020WAT      O30601   6.136   3.920   0.885
10020WAT     H130602   6.131   3.915   0.985
10020WAT     H230603   6.138   4.016   0.856
10021WAT      O30604   6.594   5.180   0.477
10021WAT     H130605   6.548   5.252   0.425
10021WAT     H230606   6.590   5.200   0.575
10022WAT      O30607   5.937   5.525   0.853
10022WAT     H130608   5.987   5.439   0.859
10022WAT     H230609   6.002   5.602   0.850
10023WAT      O30610   6.813   5.274   1.506
10023WAT     H130611   6.819   5.197   1.570
10023WAT     H230612   6.761   5.248   1.426
10024WAT      O30613   5.907   4.667   0.242
10024WAT     H130614   5.989   4.706   0.200
10024WAT     H230615   5.880   4.585   0.193
10025WAT      O30616   6.047   4.990   1.727
10025WAT     H130617   5.997   4.991   1.641
10025WAT     H230618   5.984   4.972   1.803
10026WAT      O30619   6.697   5.500   0.237
10026WAT     H130620   6.637   5.438   0.287
10026WAT     H230621   6.728   5.456   0.152
10027WAT      O30622   5.788   4.009   1.498
10027WAT     H130623   5.708   4.069   1.485
10027WAT     H230624   5.778   3.960   1.584
10028WAT      O30625   7.218   5.101   0.081
10028WAT     H130626   7.186   5.195   0.071
10028WAT     H230627   7.142   5.038   0.069
10029WAT      O30628   6.050   5.467   0.323
10029WAT     H130629   6.083   5.506   0.409
10029WAT     H230630   6.126   5.460   0.258
10030WAT      O30631   5.835   5.509   1.241
10030WAT     H130632   5.892   5.444   1.291
10030WAT     H230633   5.819   5.476   1.148
10031WAT      O30634   6.526   5.422   0.904
10031WAT     H130635   6.606   5.365   0.925
10031WAT     H230636   6.477   5.382   0.827
10032WAT      O30637   5.968   4.424   0.480
10032WAT     H130638   6.013   4.334   0.477
10032WAT     H230639   5.874   4.413   0.513
10033WAT      O30640   6.367   3.988   1.749
10033WAT     H130641   6.434   3.927   1.792
10033WAT     H230642   6.294   4.007   1.814
10034WAT      O30643   6.474   5.238   1.195
10034WAT     H130644   6.451   5.213   1.101
10034WAT     H230645   6.535   5.169   1.234
10035WAT      O30646   6.389   5.126   0.924
10035WAT     H130647   6.479   5.140   0.882
10035WAT     H230648   6.318   5.128   0.853
10036WAT      O30649   6.508   4.227   0.899
10036WAT     H130650   6.483   4.218   0.803
10036WAT     H230651   6.556   4.145   0.930
10037WAT      O30652   6.125   3.788   0.512
10037WAT     H130653   6.044   3.789   0.570
10037WAT     H230654   6.128   3.871   0.457
10038WAT      O30655   6.521   3.960   0.480
10038WAT     H130656   6.473   4.001   0.402
10038WAT     H230657   6.620   3.958   0.461
10039WAT      O30658   6.662   4.407   1.464
10039WAT     H130659   6.582   4.346   1.467
10039WAT     H230660   6.743   4.354   1.440
10040WAT      O30661   6.813   5.294   0.793
10040WAT     H130662   6.834   5.368   0.728
10040WAT     H230663   6.881   5.294   0.866
10041WAT      O30664   6.045   4.876   0.741
10041WAT     H130665   5.974   4.849   0.806
10041WAT     H230666   6.019   4.848   0.648
10042WAT      O30667   6.857   5.521   0.591
10042WAT     H130668   6.901   5.585   0.527
10042WAT     H230669   6.807   5.573   0.661
10043WAT      O30670   6.618   4.273   0.016
10043WAT     H130671   6.577   4.355  -0.023
10043WAT     H230672   6.682   4.299   0.089
10044WAT      O30673   5.664   4.280   1.386
10044WAT     H130674   5.756   4.279   1.345
10044WAT     H230675   5.658   4.354   1.453
10045WAT      O30676   6.147   3.946   1.147
10045WAT     H130677   6.185   3.862   1.184
10045WAT     H230678   6.059   3.965   1.191
10046WAT      O30679   6.452   4.178   0.642
10046WAT     H130680   6.420   4.250   0.580
10046WAT     H230681   6.476   4.097   0.589
10047WAT      O30682   6.603   3.763   0.753
10047WAT     H130683   6.531   3.768   0.684
10047WAT     H230684   6.579   3.694   0.822
10048WAT      O30685   6.074   5.109   0.174
10048WAT     H130686   5.987   5.094   0.221
10048WAT     H230687   6.057   5.135   0.079
10049WAT      O30688   6.113   3.980   0.328
10049WAT     H130689   6.140   3.921   0.253
10049WAT     H230690   6.113   4.075   0.297
10050WAT      O30691   6.650   5.071   1.340
10050WAT     H130692   6.570   5.048   1.395
10050WAT     H230693   6.733   5.045   1.389
10051WAT      O30694   6.697   4.919   1.100
10051WAT     H130695   6.657   4.963   1.181
10051WAT     H230696   6.656   4.956   1.017
10052WAT      O30697   6.501   3.813   1.402
10052WAT     H130698   6.526   3.793   1.307
10052WAT     H230699   6.573   3.869   1.444
10053WAT      O30700   6.566   4.840   1.719
10053WAT     H130701   6.467   4.846   1.729
10053WAT     H230702   6.589   4.760   1.663
10054WAT      O30703   6.291   4.774   0.368
10054WAT     H130704   6.277   4.781   0.467
10054WAT     H230705   6.375   4.723   0.350
10055WAT      O30706   5.996   4.537   1.251
10055WAT     H130707   6.082   4.549   1.301
10055WAT     H230708   5.954   4.450   1.278
10056WAT      O30709   6.860   4.110   1.262
10056WAT     H130710   6.881   4.184   1.326
10056WAT     H230711   6.771   4.127   1.219
10057WAT      O30712   5.650   5.288   1.331
10057WAT     H130713   5.604   5.370   1.297
10057WAT     H230714   5.748   5.307   1.340
10058WAT      O30715   5.953   4.824   0.501
10058WAT     H130716   5.946   4.907   0.445
10058WAT     H230717   5.957   4.744   0.441
10059WAT      O30718   6.152   4.261   0.865
10059WAT     H130719   6.164   4.327   0.791
10059WAT     H230720   6.198   4.295   0.948
10060WAT      O30721   6.838   5.072   0.388
10060WAT     H130722   6.888   5.149   0.428
10060WAT     H230723   6.743   5.074   0.420
10061WAT      O30724   6.858   5.169   1.142
10061WAT     H130725   6.905   5.182   1.229
10061WAT     H230726   6.792   5.095   1.151
10062WAT      O30727   5.940   5.234   1.329
10062WAT     H130728   5.919   5.190   1.242
10062WAT     H230729   6.037   5.260   1.332
10063WAT      O30730   5.988   4.475   1.598
10063WAT     H130731   6.056   4.530   1.551
10063WAT     H230732   6.028   4.387   1.625
10064WAT      O30733   6.599   3.829   1.770
10064WAT     H130734   6.605   3.914   1.718
10064WAT     H230735   6.631   3.753   1.713
10065WAT      O30736   6.090   3.774   1.740
10065WAT     H130737   6.048   3.717   1.670
10065WAT     H230738   6.024   3.843   1.772
10066WAT      O30739   6.159   4.594   1.029
10066WAT     H130740   6.203   4.683   1.020
10066WAT     H230741   6.096   4.594   1.106
10067WAT      O30742   6.946   4.586   1.045
10067WAT     H130743   6.871   4.586   0.979
10067WAT     H230744   6.983   4.494   1.054
10068WAT      O30745   6.795   4.249   0.275
10068WAT     H130746   6.808   4.165   0.329
10068WAT     H230747   6.766   4.323   0.335
10069WAT      O30748   5.893   3.937   1.231
10069WAT     H130749   5.870   3.974   1.321
10069WAT     H230750   5.863   3.842   1.225
10070WAT      O30751   5.623   5.034   1.282
10070WAT     H130752   5.676   4.985   1.350
10070WAT     H230753   5.645   5.132   1.287
10071WAT      O30754   6.318   4.358   1.064
10071WAT     H130755   6.377   4.332   0.988
10071WAT     H230756   6.290   4.454   1.053
10072WAT      O30757   5.893   3.787   0.618
10072WAT     H130758   5.882   3.881   0.651
10072WAT     H230759   5.888   3.724   0.695
10073WAT      O30760   7.208   4.091   0.374
10073WAT     H130761   7.210   4.015   0.438
10073WAT     H230762   7.160   4.168   0.414
10074WAT      O30763   6.609   4.490   0.966
10074WAT     H130764   6.624   4.511   1.062
10074WAT     H230765   6.579   4.395   0.957
10075WAT      O30766   6.566   5.297   1.700
10075WAT     H130767   6.546   5.341   1.612
10075WAT     H230768   6.605   5.206   1.684
10076WAT      O30769   5.936   4.622   1.804
10076WAT     H130770   6.012   4.666   1.852
10076WAT     H230771   5.971   4.575   1.722
10077WAT      O30772   6.889   4.562   0.042
10077WAT     H130773   6.923   4.469   0.057
10077WAT     H230774   6.907   4.589  -0.053
10078WAT      O30775   6.654   5.057   0.849
10078WAT     H130776   6.661   4.973   0.794
10078WAT     H230777   6.716   5.126   0.813
10079WAT      O30778   5.905   4.534   0.949
10079WAT     H130779   5.998   4.570   0.954
10079WAT     H230780   5.899   4.449   1.001
10080WAT      O30781   5.925   4.233   1.006
10080WAT     H130782   5.873   4.150   0.989
10080WAT     H230783   6.002   4.238   0.942
10081WAT      O30784   6.724   4.104   1.678
10081WAT     H130785   6.679   4.167   1.742
10081WAT     H230786   6.817   4.135   1.661
10082WAT      O30787   6.746   3.931   1.477
10082WAT     H130788   6.746   3.995   1.554
10082WAT     H230789   6.774   3.979   1.394
10083WAT      O30790   5.674   5.525   0.927
10083WAT     H130791   5.632   5.439   0.900
10083WAT     H230792   5.768   5.528   0.893
10084WAT      O30793   6.090   5.292   0.910
10084WAT     H130794   6.156   5.366   0.919
10084WAT     H230795   6.134   5.213   0.868
10085WAT      O30796   6.588   4.520   1.238
10085WAT     H130797   6.629   4.488   1.324
10085WAT     H230798   6.492   4.493   1.235
10086WAT      O30799   5.626   4.268   1.114
10086WAT     H130800   5.711   4.235   1.073
10086WAT     H230801   5.639   4.283   1.212
10087WAT      O30802   5.775   4.244   1.722
10087WAT     H130803   5.834   4.204   1.652
10087WAT     H230804   5.717   4.315   1.681
10088WAT      O30805   6.401   4.296   0.325
10088WAT     H130806   6.408   4.207   0.279
10088WAT     H230807   6.307   4.330   0.317
10089WAT      O30808   5.838   5.288   1.744
10089WAT     H130809   5.808   5.345   1.820
10089WAT     H230810   5.831   5.191   1.770
10090WAT      O30811   6.257   4.188   1.269
10090WAT     H130812   6.223   4.099   1.239
10090WAT     H230813   6.283   4.242   1.189
10091WAT      O30814   6.516   5.402   1.465
10091WAT     H130815   6.492   5.384   1.370
10091WAT     H230816   6.546   5.496   1.475
10092WAT      O30817   6.059   4.224   0.191
10092WAT     H130818   6.120   4.304   0.195
10092WAT     H230819   5.964   4.255   0.198
10093WAT      O30820   5.745   4.861   1.466
10093WAT     H130821   5.767   4.800   1.542
10093WAT     H230822   5.755   4.812   1.380
10094WAT      O30823   6.933   4.783   1.234
10094WAT     H130824   6.957   4.720   1.160
10094WAT     H230825   6.843   4.823   1.216
10095WAT      O30826   6.888   4.579   0.309
10095WAT     H130827   6.802   4.548   0.351
10095WAT     H230828   6.884   4.565   0.210
10096WAT      O30829   6.838   5.455   1.128
10096WAT     H130830   6.922   5.460   1.074
10096WAT     H230831   6.815   5.359   1.146
10097WAT      O30832   5.669   4.982   1.022
10097WAT     H130833   5.664   4.981   1.122
10097WAT     H230834   5.586   4.941   0.984
10098WAT      O30835   6.274   5.386   1.716
10098WAT     H130836   6.218   5.467   1.725
10098WAT     H230837   6.326   5.390   1.630
10099WAT      O30838   6.489   3.810   0.133
10099WAT     H130839   6.540   3.811   0.047
10099WAT     H230840   6.545   3.768   0.204
10100WAT      O30841   6.974   5.297   0.477
10100WAT     H130842   7.041   5.309   0.403
10100WAT     H230843   6.934   5.386   0.500
10101WAT      O30844   5.716   5.518   1.851
10101WAT     H130845   5.675   5.444   1.904
10101WAT     H230846   5.780   5.569   1.909
10102WAT      O30847   6.866   4.651   0.672
10102WAT     H130848   6.926   4.570   0.674
10102WAT     H230849   6.906   4.720   0.612
10103WAT      O30850   6.416   4.997   1.422
10103WAT     H130851   6.411   5.030   1.517
10103WAT     H230852   6.330   5.016   1.376
10104WAT      O30853   6.258   5.340   0.154
10104WAT     H130854   6.267   5.350   0.055
10104WAT     H230855   6.218   5.251   0.175
10105WAT      O30856   5.849   4.050   0.720
10105WAT     H130857   5.770   4.101   0.686
10105WAT     H230858   5.840   4.035   0.818
10106WAT      O30859   6.780   5.336   0.031
10106WAT     H130860   6.786   5.243   0.068
10106WAT     H230861   6.721   5.336  -0.049
10107WAT      O30862   6.408   4.726   1.372
10107WAT     H130863   6.448   4.725   1.280
10107WAT     H230864   6.418   4.818   1.412
10108WAT      O30865   6.502   4.634   0.291
10108WAT     H130866   6.565   4.672   0.223
10108WAT     H230867   6.542   4.551   0.330
10109WAT      O30868   5.958   5.012   1.490
10109WAT     H130869   5.945   5.105   1.456
10109WAT     H230870   5.874   4.960   1.477
10110WAT      O30871   6.625   4.822   0.696
10110WAT     H130872   6.555   4.775   0.750
10110WAT     H230873   6.684   4.754   0.653
10111WAT      O30874   6.600   3.960   0.971
10111WAT     H130875   6.592   3.924   0.878
10111WAT     H230876   6.598   3.884   1.036
10112WAT      O30877   6.176   5.211   0.491
10112WAT     H130878   6.218   5.153   0.421
10112WAT     H230879   6.132   5.290   0.447
10113WAT      O30880   5.841   5.072   0.290
10113WAT     H130881   5.745   5.073   0.263
10113WAT     H230882   5.853   5.125   0.374
10114WAT      O30883   5.691   4.737   1.726
10114WAT     H130884   5.614   4.704   1.780
10114WAT     H230885   5.776   4.707   1.768
10115WAT      O30886   6.258   3.927   1.489
10115WAT     H130887   6.348   3.911   1.449
10115WAT     H230888   6.266   3.932   1.588
10116WAT      O30889   5.661   4.069   0.033
10116WAT     H130890   5.569   4.041   0.004
10116WAT     H230891   5.692   4.146  -0.023
10117WAT      O30892   5.658   3.890   0.318
10117WAT     H130893   5.641   3.973   0.264
10117WAT     H230894   5.748   3.853   0.296
10118WAT      O30895   6.199   4.566   1.431
10118WAT     H130896   6.255   4.647   1.414
10118WAT     H230897   6.258   4.486   1.434
10119WAT      O30898   6.302   4.289   1.708
10119WAT     H130899   6.321   4.354   1.782
10119WAT     H230900   6.362   4.209   1.717
10120WAT      O30901   7.036   4.944   1.633
10120WAT     H130902   7.027   4.934   1.732
10120WAT     H230903   7.132   4.937   1.607
10121WAT      O30904   5.976   5.465   1.560
10121WAT     H130905   5.885   5.506   1.558
10121WAT     H230906   5.969   5.371   1.592
10122WAT      O30907   6.811   4.049   0.449
10122WAT     H130908   6.876   3.975   0.438
10122WAT     H230909   6.831   4.099   0.533
10123WAT      O30910   6.180   4.469   0.652
10123WAT     H130911   6.230   4.554   0.633
10123WAT     H230912   6.092   4.471   0.604
10124WAT      O30913   6.445   5.098   0.016
10124WAT     H130914   6.399   5.113   0.104
10124WAT     H230915   6.489   5.183  -0.014
10125WAT      O30916   6.247   5.514   0.953
10125WAT     H130917   6.201   5.602   0.940
10125WAT     H230918   6.346   5.526   0.946
10126WAT      O30919   6.445   4.680   0.861
10126WAT     H130920   6.499   4.611   0.909
10126WAT     H230921   6.413   4.749   0.927
10127WAT      O30922   6.669   4.708   0.087
10127WAT     H130923   6.646   4.761   0.005
10127WAT     H230924   6.750   4.652   0.068
10128WAT      O30925   5.807   5.038   1.844
10128WAT     H130926   5.742   4.965   1.823
10128WAT     H230927   5.811   5.052   1.942
10129WAT      O30928   5.665   4.964   0.653
10129WAT     H130929   5.664   4.917   0.741
10129WAT     H230930   5.747   4.936   0.602
10130WAT      O30931   6.258   5.115   1.624
10130WAT     H130932   6.180   5.065   1.662
10130WAT     H230933   6.255   5.210   1.655
10131WAT      O30934   6.014   4.148   0.520
10131WAT     H130935   6.044   4.076   0.458
10131WAT     H230936   5.975   4.108   0.603
10132WAT      O30937   5.903   4.271   1.280
10132WAT     H130938   5.941   4.212   1.352
10132WAT     H230939   5.943   4.245   1.192
10133WAT      O30940   6.398   5.310   0.687
10133WAT     H130941   6.430   5.320   0.593
10133WAT     H230942   6.319   5.248   0.689
10134WAT      O30943   7.010   3.938   1.112
10134WAT     H130944   7.062   3.873   1.167
10134WAT     H230945   6.961   4.001   1.173
10135WAT      O30946   6.587   3.758   1.154
10135WAT     H130947   6.524   3.686   1.123
10135WAT     H230948   6.680   3.722   1.154
10136WAT      O30949   6.356   5.054   0.301
10136WAT     H130950   6.310   4.967   0.318
10136WAT     H230951   6.447   5.051   0.342
10137WAT      O30952   6.204   5.291   1.284
10137WAT     H130953   6.199   5.373   1.341
10137WAT     H230954   6.293   5.288   1.239
10138WAT      O30955   5.625   4.801   0.300
10138WAT     H130956   5.724   4.790   0.291
10138WAT     H230957   5.585   4.715   0.332
10139WAT      O30958   6.461   5.370   0.337
10139WAT     H130959   6.384   5.335   0.283
10139WAT     H230960   6.429   5.441   0.399
10140WAT      O30961   5.816   4.352   1.975
10140WAT     H130962   5.723   4.350   2.012
10140WAT     H230963   5.817   4.313   1.883
10141WAT      O30964   5.811   3.999   2.858
10141WAT     H130965   5.846   3.982   2.950
10141WAT     H230966   5.723   3.954   2.846
10142WAT      O30967   5.605   4.092   2.509
10142WAT     H130968   5.523   4.135   2.548
10142WAT     H230969   5.577   4.019   2.446
10143WAT      O30970   6.155   4.999   3.027
10143WAT     H130971   6.062   4.992   2.990
10143WAT     H230972   6.166   5.088   3.071
10144WAT      O30973   7.141   5.235   2.565
10144WAT     H130974   7.084   5.219   2.646
10144WAT     H230975   7.082   5.245   2.485
10145WAT      O30976   6.721   4.427   2.579
10145WAT     H130977   6.778   4.505   2.554
10145WAT     H230978   6.661   4.453   2.655
10146WAT      O30979   6.354   4.868   2.885
10146WAT     H130980   6.276   4.885   2.945
10146WAT     H230981   6.388   4.955   2.849
10147WAT      O30982   6.436   4.522   3.685
10147WAT     H130983   6.432   4.598   3.750
10147WAT     H230984   6.458   4.558   3.594
10148WAT      O30985   6.271   4.736   2.527
10148WAT     H130986   6.340   4.720   2.597
10148WAT     H230987   6.198   4.793   2.565
10149WAT      O30988   6.272   4.885   3.665
10149WAT     H130989   6.332   4.964   3.679
10149WAT     H230990   6.186   4.916   3.624
10150WAT      O30991   5.921   5.159   2.923
10150WAT     H130992   5.843   5.128   2.870
10150WAT     H230993   5.979   5.217   2.866
10151WAT      O30994   6.024   4.116   3.361
10151WAT     H130995   6.106   4.060   3.370
10151WAT     H230996   5.943   4.058   3.365
10152WAT      O30997   5.817   5.437   2.345
10152WAT     H130998   5.851   5.514   2.399
10152WAT     H230999   5.861   5.437   2.255
10153WAT      O31000   6.713   5.065   3.552
10153WAT     H131001   6.760   5.065   3.640
10153WAT     H231002   6.665   4.978   3.541
10154WAT      O31003   5.816   5.158   2.400
10154WAT     H131004   5.790   5.254   2.400
10154WAT     H231005   5.745   5.104   2.445
10155WAT      O31006   5.826   4.815   2.748
10155WAT     H131007   5.840   4.731   2.800
10155WAT     H231008   5.771   4.879   2.803
10156WAT      O31009   6.206   5.510   3.301
10156WAT     H131010   6.114   5.493   3.336
10156WAT     H231011   6.234   5.602   3.327
10157WAT      O31012   6.192   4.688   1.985
10157WAT     H131013   6.199   4.772   1.931
10157WAT     H231014   6.238   4.701   2.073
10158WAT      O31015   5.708   4.367   2.425
10158WAT     H131016   5.663   4.279   2.442
10158WAT     H231017   5.707   4.421   2.509
10159WAT      O31018   5.613   5.320   1.979
10159WAT     H131019   5.594   5.224   2.000
10159WAT     H231020   5.580   5.378   2.054
10160WAT      O31021   5.699   4.461   3.459
10160WAT     H131022   5.787   4.448   3.504
10160WAT     H231023   5.686   4.558   3.437
10161WAT      O31024   6.199   5.089   2.588
10161WAT     H131025   6.150   5.002   2.597
10161WAT     H231026   6.176   5.132   2.501
10162WAT      O31027   6.879   4.952   3.285
10162WAT     H131028   6.916   4.879   3.227
10162WAT     H231029   6.931   4.957   3.370
10163WAT      O31030   6.395   3.728   2.364
10163WAT     H131031   6.435   3.819   2.355
10163WAT     H231032   6.295   3.736   2.370
10164WAT      O31033   5.783   4.700   3.126
10164WAT     H131034   5.872   4.655   3.112
10164WAT     H231035   5.710   4.635   3.107
10165WAT      O31036   6.773   5.516   3.478
10165WAT     H131037   6.797   5.576   3.402
10165WAT     H231038   6.780   5.421   3.448
10166WAT      O31039   5.903   3.975   3.663
10166WAT     H131040   5.974   4.046   3.669
10166WAT     H231041   5.815   4.014   3.691
10167WAT      O31042   6.184   4.453   2.132
10167WAT     H131043   6.208   4.522   2.064
10167WAT     H231044   6.106   4.486   2.186
10168WAT      O31045   6.867   4.069   2.806
10168WAT     H131046   6.781   4.019   2.793
10168WAT     H231047   6.929   4.015   2.862
10169WAT      O31048   6.393   4.329   3.327
10169WAT     H131049   6.346   4.326   3.416
10169WAT     H231050   6.342   4.274   3.261
10170WAT      O31051   6.980   4.193   3.536
10170WAT     H131052   6.960   4.236   3.624
10170WAT     H231053   7.058   4.131   3.545
10171WAT      O31054   6.559   4.614   3.434
10171WAT     H131055   6.605   4.530   3.405
10171WAT     H231056   6.503   4.648   3.359
10172WAT      O31057   6.577   4.134   3.104
10172WAT     H131058   6.500   4.168   3.158
10172WAT     H231059   6.543   4.083   3.025
10173WAT      O31060   6.627   4.425   2.291
10173WAT     H131061   6.653   4.421   2.387
10173WAT     H231062   6.542   4.374   2.277
10174WAT      O31063   5.662   4.535   2.651
10174WAT     H131064   5.761   4.523   2.660
10174WAT     H231065   5.638   4.630   2.672
10175WAT      O31066   5.716   5.545   3.433
10175WAT     H131067   5.706   5.530   3.532
10175WAT     H231068   5.630   5.581   3.397
10176WAT      O31069   6.451   4.072   2.057
10176WAT     H131070   6.510   4.135   2.008
10176WAT     H231071   6.470   3.978   2.028
10177WAT      O31072   6.948   4.868   2.407
10177WAT     H131073   7.031   4.839   2.359
10177WAT     H231074   6.899   4.935   2.351
10178WAT      O31075   6.136   3.920   2.747
10178WAT     H131076   6.131   3.915   2.847
10178WAT     H231077   6.138   4.016   2.718
10179WAT      O31078   6.594   5.180   2.339
10179WAT     H131079   6.548   5.252   2.287
10179WAT     H231080   6.590   5.200   2.437
10180WAT      O31081   5.937   5.525   2.715
10180WAT     H131082   5.987   5.439   2.721
10180WAT     H231083   6.002   5.602   2.712
10181WAT      O31084   6.813   5.274   3.368
10181WAT     H131085   6.819   5.197   3.432
10181WAT     H231086   6.761   5.248   3.288
10182WAT      O31087   5.907   4.667   2.104
10182WAT     H131088   5.989   4.706   2.062
10182WAT     H231089   5.880   4.585   2.055
10183WAT      O31090   6.047   4.990   3.589
10183WAT     H131091   5.997   4.991   3.503
10183WAT     H231092   5.984   4.972   3.665
10184WAT      O31093   6.697   5.500   2.099
10184WAT     H131094   6.637   5.438   2.149
10184WAT     H231095   6.728   5.456   2.014
10185WAT      O31096   5.788   4.009   3.360
10185WAT     H131097   5.708   4.069   3.347
10185WAT     H231098   5.778   3.960   3.446
10186WAT      O31099   6.050   5.467   2.185
10186WAT     H131100   6.083   5.506   2.271
10186WAT     H231101   6.126   5.460   2.120
10187WAT      O31102   5.835   5.509   3.103
10187WAT     H131103   5.892   5.444   3.153
10187WAT     H231104   5.819   5.476   3.010
10188WAT      O31105   6.526   5.422   2.766
10188WAT     H131106   6.606   5.365   2.787
10188WAT     H231107   6.477   5.382   2.689
10189WAT      O31108   5.968   4.424   2.342
10189WAT     H131109   6.013   4.334   2.339
10189WAT     H231110   5.874   4.413   2.375
10190WAT      O31111   6.200   3.846   1.979
10190WAT     H131112   6.298   3.824   1.986
10190WAT     H231113   6.169   3.829   1.886
10191WAT      O31114   6.367   3.988   3.611
10191WAT     H131115   6.434   3.927   3.654
10191WAT     H231116   6.294   4.007   3.676
10192WAT      O31117   6.474   5.238   3.057
10192WAT     H131118   6.451   5.213   2.963
10192WAT     H231119   6.535   5.169   3.096
10193WAT      O31120   6.389   5.126   2.786
10193WAT     H131121   6.479   5.140   2.744
10193WAT     H231122   6.318   5.128   2.715
10194WAT      O31123   6.508   4.227   2.761
10194WAT     H131124   6.483   4.218   2.665
10194WAT     H231125   6.556   4.145   2.792
10195WAT      O31126   6.125   3.788   2.374
10195WAT     H131127   6.044   3.789   2.432
10195WAT     H231128   6.128   3.871   2.319
10196WAT      O31129   7.020   4.912   1.903
10196WAT     H131130   7.052   4.836   1.960
10196WAT     H231131   6.928   4.939   1.933
10197WAT      O31132   5.883   3.759   2.033
10197WAT     H131133   5.932   3.843   2.012
10197WAT     H231134   5.945   3.694   2.078
10198WAT      O31135   6.521   3.960   2.342
10198WAT     H131136   6.473   4.001   2.264
10198WAT     H231137   6.620   3.958   2.323
10199WAT      O31138   6.662   4.407   3.326
10199WAT     H131139   6.582   4.346   3.329
10199WAT     H231140   6.743   4.354   3.302
10200WAT      O31141   6.813   5.294   2.655
10200WAT     H131142   6.834   5.368   2.590
10200WAT     H231143   6.881   5.294   2.728
10201WAT      O31144   6.045   4.876   2.603
10201WAT     H131145   5.974   4.849   2.668
10201WAT     H231146   6.019   4.848   2.510
10202WAT      O31147   6.857   5.521   2.453
10202WAT     H131148   6.901   5.585   2.389
10202WAT     H231149   6.807   5.573   2.523
10203WAT      O31150   6.618   4.273   1.878
10203WAT     H131151   6.577   4.355   1.839
10203WAT     H231152   6.682   4.299   1.951
10204WAT      O31153   5.664   4.280   3.248
10204WAT     H131154   5.756   4.279   3.207
10204WAT     H231155   5.658   4.354   3.315
10205WAT      O31156   6.147   3.946   3.009
10205WAT     H131157   6.185   3.862   3.046
10205WAT     H231158   6.059   3.965   3.053
10206WAT      O31159   6.452   4.178   2.504
10206WAT     H131160   6.420   4.250   2.442
10206WAT     H231161   6.476   4.097   2.451
10207WAT      O31162   6.603   3.763   2.615
10207WAT     H131163   6.531   3.768   2.546
10207WAT     H231164   6.579   3.694   2.684
10208WAT      O31165   6.074   5.109   2.036
10208WAT     H131166   5.987   5.094   2.083
10208WAT     H231167   6.057   5.135   1.941
10209WAT      O31168   6.113   3.980   2.190
10209WAT     H131169   6.140   3.921   2.115
10209WAT     H231170   6.113   4.075   2.159
10210WAT      O31171   6.650   5.071   3.202
10210WAT     H131172   6.570   5.048   3.257
10210WAT     H231173   6.733   5.045   3.251
10211WAT      O31174   6.697   4.919   2.962
10211WAT     H131175   6.657   4.963   3.043
10211WAT     H231176   6.656   4.956   2.879
10212WAT      O31177   6.501   3.813   3.264
10212WAT     H131178   6.526   3.793   3.169
10212WAT     H231179   6.573   3.869   3.306
10213WAT      O31180   6.566   4.840   3.581
10213WAT     H131181   6.467   4.846   3.591
10213WAT     H231182   6.589   4.760   3.525
10214WAT      O31183   6.291   4.774   2.230
10214WAT     H131184   6.277   4.781   2.329
10214WAT     H231185   6.375   4.723   2.212
10215WAT      O31186   5.996   4.537   3.113
10215WAT     H131187   6.082   4.549   3.163
10215WAT     H231188   5.954   4.450   3.140
10216WAT      O31189   6.860   4.110   3.124
10216WAT     H131190   6.881   4.184   3.188
10216WAT     H231191   6.771   4.127   3.081
10217WAT      O31192   5.650   5.288   3.193
10217WAT     H131193   5.604   5.370   3.159
10217WAT     H231194   5.748   5.307   3.202
10218WAT      O31195   5.953   4.824   2.363
10218WAT     H131196   5.946   4.907   2.307
10218WAT     H231197   5.957   4.744   2.303
10219WAT      O31198   6.152   4.261   2.727
10219WAT     H131199   6.164   4.327   2.653
10219WAT     H231200   6.198   4.295   2.810
10220WAT      O31201   6.838   5.072   2.250
10220WAT     H131202   6.888   5.149   2.290
10220WAT     H231203   6.743   5.074   2.282
10221WAT      O31204   6.858   5.169   3.004
10221WAT     H131205   6.905   5.182   3.091
10221WAT     H231206   6.792   5.095   3.013
10222WAT      O31207   5.940   5.234   3.191
10222WAT     H131208   5.919   5.190   3.104
10222WAT     H231209   6.037   5.260   3.194
10223WAT      O31210   5.988   4.475   3.460
10223WAT     H131211   6.056   4.530   3.413
10223WAT     H231212   6.028   4.387   3.487
10224WAT      O31213   6.599   3.829   3.632
10224WAT     H131214   6.605   3.914   3.580
10224WAT     H231215   6.631   3.753   3.575
10225WAT      O31216   6.090   3.774   3.602
10225WAT     H131217   6.048   3.717   3.532
10225WAT     H231218   6.024   3.843   3.634
10226WAT      O31219   6.159   4.594   2.891
10226WAT     H131220   6.203   4.683   2.882
10226WAT     H231221   6.096   4.594   2.968
10227WAT      O31222   6.946   4.586   2.907
10227WAT     H131223   6.871   4.586   2.841
10227WAT     H231224   6.983   4.494   2.916
10228WAT      O31225   6.795   4.249   2.137
10228WAT     H131226   6.808   4.165   2.191
10228WAT     H231227   6.766   4.323   2.197
10229WAT      O31228   5.893   3.937   3.093
10229WAT     H131229   5.870   3.974   3.183
10229WAT     H231230   5.863   3.842   3.087
10230WAT      O31231   5.623   5.034   3.144
10230WAT     H131232   5.676   4.985   3.212
10230WAT     H231233   5.645   5.132   3.149
10231WAT      O31234   6.318   4.358   2.926
10231WAT     H131235   6.377   4.332   2.850
10231WAT     H231236   6.290   4.454   2.915
10232WAT      O31237   5.893   3.787   2.480
10232WAT     H131238   5.882   3.881   2.513
10232WAT     H231239   5.888   3.724   2.557
10233WAT      O31240   7.208   4.091   2.236
10233WAT     H131241   7.210   4.015   2.300
10233WAT     H231242   7.160   4.168   2.276
10234WAT      O31243   6.609   4.490   2.828
10234WAT     H131244   6.624   4.511   2.924
10234WAT     H231245   6.579   4.395   2.819
10235WAT      O31246   6.566   5.297   3.562
10235WAT     H131247   6.546   5.341   3.474
10235WAT     H231248   6.605   5.206   3.546
10236WAT      O31249   5.936   4.622   3.666
10236WAT     H131250   6.012   4.666   3.714
10236WAT     H231251   5.971   4.575   3.584
10237WAT      O31252   6.889   4.562   1.904
10237WAT     H131253   6.923   4.469   1.919
10237WAT     H231254   6.907   4.589   1.809
10238WAT      O31255   6.654   5.057   2.711
10238WAT     H131256   6.661   4.973   2.656
10238WAT     H231257   6.716   5.126   2.675
10239WAT      O31258   5.905   4.534   2.811
10239WAT     H131259   5.998   4.570   2.816
10239WAT     H231260   5.899   4.449   2.863
10240WAT      O31261   5.925   4.233   2.868
10240WAT     H131262   5.873   4.150   2.851
10240WAT     H231263   6.002   4.238   2.804
10241WAT      O31264   6.724   4.104   3.540
10241WAT     H131265   6.679   4.167   3.604
10241WAT     H231266   6.817   4.135   3.523
10242WAT      O31267   6.746   3.931   3.339
10242WAT     H131268   6.746   3.995   3.416
10242WAT     H231269   6.774   3.979   3.256
10243WAT      O31270   5.594   5.050   2.062
10243WAT     H131271   5.501   5.071   2.031
10243WAT     H231272   5.604   4.951   2.075
10244WAT      O31273   5.674   5.525   2.789
10244WAT     H131274   5.632   5.439   2.762
10244WAT     H231275   5.768   5.528   2.755
10245WAT      O31276   6.090   5.292   2.772
10245WAT     H131277   6.156   5.366   2.781
10245WAT     H231278   6.134   5.213   2.730
10246WAT      O31279   6.588   4.520   3.100
10246WAT     H131280   6.629   4.488   3.186
10246WAT     H231281   6.492   4.493   3.097
10247WAT      O31282   5.626   4.268   2.976
10247WAT     H131283   5.711   4.235   2.935
10247WAT     H231284   5.639   4.283   3.074
10248WAT      O31285   5.775   4.244   3.584
10248WAT     H131286   5.834   4.204   3.514
10248WAT     H231287   5.717   4.315   3.543
10249WAT      O31288   6.401   4.296   2.187
10249WAT     H131289   6.408   4.207   2.141
10249WAT     H231290   6.307   4.330   2.179
10250WAT      O31291   5.838   5.288   3.606
10250WAT     H131292   5.808   5.345   3.682
10250WAT     H231293   5.831   5.191   3.632
10251WAT      O31294   6.257   4.188   3.131
10251WAT     H131295   6.223   4.099   3.101
10251WAT     H231296   6.283   4.242   3.051
10252WAT      O31297   6.516   5.402   3.327
10252WAT     H131298   6.492   5.384   3.232
10252WAT     H231299   6.546   5.496   3.337
10253WAT      O31300   6.059   4.224   2.053
10253WAT     H131301   6.120   4.304   2.057
10253WAT     H231302   5.964   4.255   2.060
10254WAT      O31303   5.745   4.861   3.328
10254WAT     H131304   5.767   4.800   3.404
10254WAT     H231305   5.755   4.812   3.242
10255WAT      O31306   6.933   4.783   3.096
10255WAT     H131307   6.957   4.720   3.022
10255WAT     H231308   6.843   4.823   3.078
10256WAT      O31309   6.888   4.579   2.171
10256WAT     H131310   6.802   4.548   2.213
10256WAT     H231311   6.884   4.565   2.072
10257WAT      O31312   6.838   5.455   2.990
10257WAT     H131313   6.922   5.460   2.936
10257WAT     H231314   6.815   5.359   3.008
10258WAT      O31315   5.669   4.982   2.884
10258WAT     H131316   5.664   4.981   2.984
10258WAT     H231317   5.586   4.941   2.846
10259WAT      O31318   6.274   5.386   3.578
10259WAT     H131319   6.218   5.467   3.587
10259WAT     H231320   6.326   5.390   3.492
10260WAT      O31321   6.974   5.297   2.339
10260WAT     H131322   7.041   5.309   2.265
10260WAT     H231323   6.934   5.386   2.362
10261WAT      O31324   5.716   5.518   3.713
10261WAT     H131325   5.675   5.444   3.766
10261WAT     H231326   5.780   5.569   3.771
10262WAT      O31327   6.866   4.651   2.534
10262WAT     H131328   6.926   4.570   2.536
10262WAT     H231329   6.906   4.720   2.474
10263WAT      O31330   6.416   4.997   3.284
10263WAT     H131331   6.411   5.030   3.379
10263WAT     H231332   6.330   5.016   3.238
10264WAT      O31333   6.258   5.340   2.016
10264WAT     H131334   6.267   5.350   1.917
10264WAT     H231335   6.218   5.251   2.037
10265WAT      O31336   5.849   4.050   2.582
10265WAT     H131337   5.770   4.101   2.548
10265WAT     H231338   5.840   4.035   2.680
10266WAT      O31339   6.780   5.336   1.893
10266WAT     H131340   6.786   5.243   1.930
10266WAT     H231341   6.721   5.336   1.813
10267WAT      O31342   6.408   4.726   3.234
10267WAT     H131343   6.448   4.725   3.142
10267WAT     H231344   6.418   4.818   3.274
10268WAT      O31345   6.502   4.634   2.153
10268WAT     H131346   6.565   4.672   2.085
10268WAT     H231347   6.542   4.551   2.192
10269WAT      O31348   5.958   5.012   3.352
10269WAT     H131349   5.945   5.105   3.318
10269WAT     H231350   5.874   4.960   3.339
10270WAT      O31351   6.625   4.822   2.558
10270WAT     H131352   6.555   4.775   2.612
10270WAT     H231353   6.684   4.754   2.515
10271WAT      O31354   6.600   3.960   2.833
10271WAT     H131355   6.592   3.924   2.740
10271WAT     H231356   6.598   3.884   2.898
10272WAT      O31357   6.176   5.211   2.353
10272WAT     H131358   6.218   5.153   2.283
10272WAT     H231359   6.132   5.290   2.309
10273WAT      O31360   5.841   5.072   2.152
10273WAT     H131361   5.745   5.073   2.125
10273WAT     H231362   5.853   5.125   2.236
10274WAT      O31363   5.691   4.737   3.588
10274WAT     H131364   5.614   4.704   3.642
10274WAT     H231365   5.776   4.707   3.630
10275WAT      O31366   6.258   3.927   3.351
10275WAT     H131367   6.348   3.911   3.311
10275WAT     H231368   6.266   3.932   3.450
10276WAT      O31369   5.661   4.069   1.895
10276WAT     H131370   5.569   4.041   1.866
10276WAT     H231371   5.692   4.146   1.839
10277WAT      O31372   5.658   3.890   2.180
10277WAT     H131373   5.641   3.973   2.126
10277WAT     H231374   5.748   3.853   2.158
10278WAT      O31375   6.199   4.566   3.293
10278WAT     H131376   6.255   4.647   3.276
10278WAT     H231377   6.258   4.486   3.296
10279WAT      O31378   6.302   4.289   3.570
10279WAT     H131379   6.321   4.354   3.644
10279WAT     H231380   6.362   4.209   3.579
10280WAT      O31381   7.036   4.944   3.495
10280WAT     H131382   7.027   4.934   3.594
10280WAT     H231383   7.132   4.937   3.469
10281WAT      O31384   5.976   5.465   3.422
10281WAT     H131385   5.885   5.506   3.420
10281WAT     H231386   5.969   5.371   3.454
10282WAT      O31387   6.811   4.049   2.311
10282WAT     H131388   6.876   3.975   2.300
10282WAT     H231389   6.831   4.099   2.395
10283WAT      O31390   6.180   4.469   2.514
10283WAT     H131391   6.230   4.554   2.495
10283WAT     H231392   6.092   4.471   2.466
10284WAT      O31393   6.445   5.098   1.878
10284WAT     H131394   6.399   5.113   1.966
10284WAT     H231395   6.489   5.183   1.848
10285WAT      O31396   6.247   5.514   2.815
10285WAT     H131397   6.201   5.602   2.802
10285WAT     H231398   6.346   5.526   2.808
10286WAT      O31399   6.445   4.680   2.723
10286WAT     H131400   6.499   4.611   2.771
10286WAT     H231401   6.413   4.749   2.789
10287WAT      O31402   6.669   4.708   1.949
10287WAT     H131403   6.646   4.761   1.867
10287WAT     H231404   6.750   4.652   1.930
10288WAT      O31405   5.807   5.038   3.706
10288WAT     H131406   5.742   4.965   3.685
10288WAT     H231407   5.811   5.052   3.804
10289WAT      O31408   5.665   4.964   2.515
10289WAT     H131409   5.664   4.917   2.603
10289WAT     H231410   5.747   4.936   2.464
10290WAT      O31411   6.258   5.115   3.486
10290WAT     H131412   6.180   5.065   3.524
10290WAT     H231413   6.255   5.210   3.517
10291WAT      O31414   6.014   4.148   2.382
10291WAT     H131415   6.044   4.076   2.320
10291WAT     H231416   5.975   4.108   2.465
10292WAT      O31417   5.903   4.271   3.142
10292WAT     H131418   5.941   4.212   3.214
10292WAT     H231419   5.943   4.245   3.054
10293WAT      O31420   6.398   5.310   2.549
10293WAT     H131421   6.430   5.320   2.455
10293WAT     H231422   6.319   5.248   2.551
10294WAT      O31423   7.010   3.938   2.974
10294WAT     H131424   7.062   3.873   3.029
10294WAT     H231425   6.961   4.001   3.035
10295WAT      O31426   6.587   3.758   3.016
10295WAT     H131427   6.524   3.686   2.985
10295WAT     H231428   6.680   3.722   3.016
10296WAT      O31429   6.356   5.054   2.163
10296WAT     H131430   6.310   4.967   2.180
10296WAT     H231431   6.447   5.051   2.204
10297WAT      O31432   6.204   5.291   3.146
10297WAT     H131433   6.199   5.373   3.203
10297WAT     H231434   6.293   5.288   3.101
10298WAT      O31435   6.938   3.776   2.030
10298WAT     H131436   6.973   3.735   1.946
10298WAT     H231437   6.848   3.738   2.050
10299WAT      O31438   5.625   4.801   2.162
10299WAT     H131439   5.724   4.790   2.153
10299WAT     H231440   5.585   4.715   2.194
10300WAT      O31441   6.461   5.370   2.199
10300WAT     H131442   6.384   5.335   2.145
10300WAT     H231443   6.429   5.441   2.261
10301WAT      O31444   5.816   4.352   3.837
10301WAT     H131445   5.723   4.350   3.874
10301WAT     H231446   5.817   4.313   3.745
10302WAT      O31447   5.811   3.999   4.720
10302WAT     H131448   5.846   3.982   4.812
10302WAT     H231449   5.723   3.954   4.708
10303WAT      O31450   5.605   4.092   4.371
10303WAT     H131451   5.523   4.135   4.410
10303WAT     H231452   5.577   4.019   4.308
10304WAT      O31453   6.155   4.999   4.889
10304WAT     H131454   6.062   4.992   4.852
10304WAT     H231455   6.166   5.088   4.933
10305WAT      O31456   7.141   5.235   4.427
10305WAT     H131457   7.084   5.219   4.508
10305WAT     H231458   7.082   5.245   4.347
10306WAT      O31459   6.721   4.427   4.441
10306WAT     H131460   6.778   4.505   4.416
10306WAT     H231461   6.661   4.453   4.517
10307WAT      O31462   6.354   4.868   4.747
10307WAT     H131463   6.276   4.885   4.807
10307WAT     H231464   6.388   4.955   4.711
10308WAT      O31465   6.436   4.522   5.547
10308WAT     H131466   6.432   4.598   5.612
10308WAT     H231467   6.458   4.558   5.456
10309WAT      O31468   6.271   4.736   4.389
10309WAT     H131469   6.340   4.720   4.459
10309WAT     H231470   6.198   4.793   4.427
10310WAT      O31471   6.272   4.885   5.527
10310WAT     H131472   6.332   4.964   5.541
10310WAT     H231473   6.186   4.916   5.486
10311WAT      O31474   5.921   5.159   4.785
10311WAT     H131475   5.843   5.128   4.732
10311WAT     H231476   5.979   5.217   4.728
10312WAT      O31477   6.024   4.116   5.223
10312WAT     H131478   6.106   4.060   5.232
10312WAT     H231479   5.943   4.058   5.227
10313WAT      O31480   5.817   5.437   4.207
10313WAT     H131481   5.851   5.514   4.261
10313WAT     H231482   5.861   5.437   4.117
10314WAT      O31483   6.713   5.065   5.414
10314WAT     H131484   6.760   5.065   5.502
10314WAT     H231485   6.665   4.978   5.403
10315WAT      O31486   5.816   5.158   4.262
10315WAT     H131487   5.790   5.254   4.262
10315WAT     H231488   5.745   5.104   4.307
10316WAT      O31489   5.826   4.815   4.610
10316WAT     H131490   5.840   4.731   4.662
10316WAT     H231491   5.771   4.879   4.665
10317WAT      O31492   6.206   5.510   5.163
10317WAT     H131493   6.114   5.493   5.198
10317WAT     H231494   6.234   5.602   5.189
10318WAT      O31495   6.192   4.688   3.847
10318WAT     H131496   6.199   4.772   3.793
10318WAT     H231497   6.238   4.701   3.935
10319WAT      O31498   5.708   4.367   4.287
10319WAT     H131499   5.663   4.279   4.304
10319WAT     H231500   5.707   4.421   4.371
10320WAT      O31501   5.613   5.320   3.841
10320WAT     H131502   5.594   5.224   3.862
10320WAT     H231503   5.580   5.378   3.916
10321WAT      O31504   5.699   4.461   5.321
10321WAT     H131505   5.787   4.448   5.366
10321WAT     H231506   5.686   4.558   5.299
10322WAT      O31507   6.199   5.089   4.450
10322WAT     H131508   6.150   5.002   4.459
10322WAT     H231509   6.176   5.132   4.363
10323WAT      O31510   6.879   4.952   5.147
10323WAT     H131511   6.916   4.879   5.089
10323WAT     H231512   6.931   4.957   5.232
10324WAT      O31513   6.395   3.728   4.226
10324WAT     H131514   6.435   3.819   4.217
10324WAT     H231515   6.295   3.736   4.232
10325WAT      O31516   5.783   4.700   4.988
10325WAT     H131517   5.872   4.655   4.974
10325WAT     H231518   5.710   4.635   4.969
10326WAT      O31519   6.773   5.516   5.340
10326WAT     H131520   6.797   5.576   5.264
10326WAT     H231521   6.780   5.421   5.310
10327WAT      O31522   5.903   3.975   5.525
10327WAT     H131523   5.974   4.046   5.531
10327WAT     H231524   5.815   4.014   5.553
10328WAT      O31525   6.184   4.453   3.994
10328WAT     H131526   6.208   4.522   3.926
10328WAT     H231527   6.106   4.486   4.048
10329WAT      O31528   6.867   4.069   4.668
10329WAT     H131529   6.781   4.019   4.655
10329WAT     H231530   6.929   4.015   4.724
10330WAT      O31531   6.393   4.329   5.189
10330WAT     H131532   6.346   4.326   5.278
10330WAT     H231533   6.342   4.274   5.123
10331WAT      O31534   6.980   4.193   5.398
10331WAT     H131535   6.960   4.236   5.486
10331WAT     H231536   7.058   4.131   5.407
10332WAT      O31537   6.559   4.614   5.296
10332WAT     H131538   6.605   4.530   5.267
10332WAT     H231539   6.503   4.648   5.221
10333WAT      O31540   6.577   4.134   4.966
10333WAT     H131541   6.500   4.168   5.020
10333WAT     H231542   6.543   4.083   4.887
10334WAT      O31543   6.627   4.425   4.153
10334WAT     H131544   6.653   4.421   4.249
10334WAT     H231545   6.542   4.374   4.139
10335WAT      O31546   5.662   4.535   4.513
10335WAT     H131547   5.761   4.523   4.522
10335WAT     H231548   5.638   4.630   4.534
10336WAT      O31549   5.716   5.545   5.295
10336WAT     H131550   5.706   5.530   5.394
10336WAT     H231551   5.630   5.581   5.259
10337WAT      O31552   6.451   4.072   3.919
10337WAT     H131553   6.510   4.135   3.870
10337WAT     H231554   6.470   3.978   3.890
10338WAT      O31555   6.948   4.868   4.269
10338WAT     H131556   7.031   4.839   4.221
10338WAT     H231557   6.899   4.935   4.213
10339WAT      O31558   6.136   3.920   4.609
10339WAT     H131559   6.131   3.915   4.709
10339WAT     H231560   6.138   4.016   4.580
10340WAT      O31561   6.594   5.180   4.201
10340WAT     H131562   6.548   5.252   4.149
10340WAT     H231563   6.590   5.200   4.299
10341WAT      O31564   5.937   5.525   4.577
10341WAT     H131565   5.987   5.439   4.583
10341WAT     H231566   6.002   5.602   4.574
10342WAT      O31567   6.813   5.274   5.230
10342WAT     H131568   6.819   5.197   5.294
10342WAT     H231569   6.761   5.248   5.150
10343WAT      O31570   5.907   4.667   3.966
10343WAT     H131571   5.989   4.706   3.924
10343WAT     H231572   5.880   4.585   3.917
10344WAT      O31573   6.047   4.990   5.451
10344WAT     H131574   5.997   4.991   5.365
10344WAT     H231575   5.984   4.972   5.527
10345WAT      O31576   6.697   5.500   3.961
10345WAT     H131577   6.637   5.438   4.011
10345WAT     H231578   6.728   5.456   3.876
10346WAT      O31579   5.788   4.009   5.222
10346WAT     H131580   5.708   4.069   5.209
10346WAT     H231581   5.778   3.960   5.308
10347WAT      O31582   6.050   5.467   4.047
10347WAT     H131583   6.083   5.506   4.133
10347WAT     H231584   6.126   5.460   3.982
10348WAT      O31585   5.835   5.509   4.965
10348WAT     H131586   5.892   5.444   5.015
10348WAT     H231587   5.819   5.476   4.872
10349WAT      O31588   6.526   5.422   4.628
10349WAT     H131589   6.606   5.365   4.649
10349WAT     H231590   6.477   5.382   4.551
10350WAT      O31591   5.968   4.424   4.204
10350WAT     H131592   6.013   4.334   4.201
10350WAT     H231593   5.874   4.413   4.237
10351WAT      O31594   6.200   3.846   3.841
10351WAT     H131595   6.298   3.824   3.848
10351WAT     H231596   6.169   3.829   3.748
10352WAT      O31597   6.367   3.988   5.473
10352WAT     H131598   6.434   3.927   5.516
10352WAT     H231599   6.294   4.007   5.538
10353WAT      O31600   6.474   5.238   4.919
10353WAT     H131601   6.451   5.213   4.825
10353WAT     H231602   6.535   5.169   4.958
10354WAT      O31603   6.389   5.126   4.648
10354WAT     H131604   6.479   5.140   4.606
10354WAT     H231605   6.318   5.128   4.577
10355WAT      O31606   6.508   4.227   4.623
10355WAT     H131607   6.483   4.218   4.527
10355WAT     H231608   6.556   4.145   4.654
10356WAT      O31609   6.125   3.788   4.236
10356WAT     H131610   6.044   3.789   4.294
10356WAT     H231611   6.128   3.871   4.181
10357WAT      O31612   7.020   4.912   3.765
10357WAT     H131613   7.052   4.836   3.822
10357WAT     H231614   6.928   4.939   3.795
10358WAT      O31615   5.883   3.759   3.895
10358WAT     H131616   5.932   3.843   3.874
10358WAT     H231617   5.945   3.694   3.940
10359WAT      O31618   6.521   3.960   4.204
10359WAT     H131619   6.473   4.001   4.126
10359WAT     H231620   6.620   3.958   4.185
10360WAT      O31621   6.662   4.407   5.188
10360WAT     H131622   6.582   4.346   5.191
10360WAT     H231623   6.743   4.354   5.164
10361WAT      O31624   6.813   5.294   4.517
10361WAT     H131625   6.834   5.368   4.452
10361WAT     H231626   6.881   5.294   4.590
10362WAT      O31627   6.045   4.876   4.465
10362WAT     H131628   5.974   4.849   4.530
10362WAT     H231629   6.019   4.848   4.372
10363WAT      O31630   6.857   5.521   4.315
10363WAT     H131631   6.901   5.585   4.251
10363WAT     H231632   6.807   5.573   4.385
10364WAT      O31633   6.618   4.273   3.740
10364WAT     H131634   6.577   4.355   3.701
10364WAT     H231635   6.682   4.299   3.813
10365WAT      O31636   5.664   4.280   5.110
10365WAT     H131637   5.756   4.279   5.069
10365WAT     H231638   5.658   4.354   5.177
10366WAT      O31639   6.147   3.946   4.871
10366WAT     H131640   6.185   3.862   4.908
10366WAT     H231641   6.059   3.965   4.915
10367WAT      O31642   6.452   4.178   4.366
10367WAT     H131643   6.420   4.250   4.304
10367WAT     H231644   6.476   4.097   4.313
10368WAT      O31645   6.603   3.763   4.477
10368WAT     H131646   6.531   3.768   4.408
10368WAT     H231647   6.579   3.694   4.546
10369WAT      O31648   6.074   5.109   3.898
10369WAT     H131649   5.987   5.094   3.945
10369WAT     H231650   6.057   5.135   3.803
10370WAT      O31651   6.113   3.980   4.052
10370WAT     H131652   6.140   3.921   3.977
10370WAT     H231653   6.113   4.075   4.021
10371WAT      O31654   6.650   5.071   5.064
10371WAT     H131655   6.570   5.048   5.119
10371WAT     H231656   6.733   5.045   5.113
10372WAT      O31657   6.697   4.919   4.824
10372WAT     H131658   6.657   4.963   4.905
10372WAT     H231659   6.656   4.956   4.741
10373WAT      O31660   6.501   3.813   5.126
10373WAT     H131661   6.526   3.793   5.031
10373WAT     H231662   6.573   3.869   5.168
10374WAT      O31663   6.566   4.840   5.443
10374WAT     H131664   6.467   4.846   5.453
10374WAT     H231665   6.589   4.760   5.387
10375WAT      O31666   6.291   4.774   4.092
10375WAT     H131667   6.277   4.781   4.191
10375WAT     H231668   6.375   4.723   4.074
10376WAT      O31669   5.996   4.537   4.975
10376WAT     H131670   6.082   4.549   5.025
10376WAT     H231671   5.954   4.450   5.002
10377WAT      O31672   6.860   4.110   4.986
10377WAT     H131673   6.881   4.184   5.050
10377WAT     H231674   6.771   4.127   4.943
10378WAT      O31675   5.650   5.288   5.055
10378WAT     H131676   5.604   5.370   5.021
10378WAT     H231677   5.748   5.307   5.064
10379WAT      O31678   5.953   4.824   4.225
10379WAT     H131679   5.946   4.907   4.169
10379WAT     H231680   5.957   4.744   4.165
10380WAT      O31681   6.152   4.261   4.589
10380WAT     H131682   6.164   4.327   4.515
10380WAT     H231683   6.198   4.295   4.672
10381WAT      O31684   6.838   5.072   4.112
10381WAT     H131685   6.888   5.149   4.152
10381WAT     H231686   6.743   5.074   4.144
10382WAT      O31687   6.858   5.169   4.866
10382WAT     H131688   6.905   5.182   4.953
10382WAT     H231689   6.792   5.095   4.875
10383WAT      O31690   5.940   5.234   5.053
10383WAT     H131691   5.919   5.190   4.966
10383WAT     H231692   6.037   5.260   5.056
10384WAT      O31693   5.988   4.475   5.322
10384WAT     H131694   6.056   4.530   5.275
10384WAT     H231695   6.028   4.387   5.349
10385WAT      O31696   6.599   3.829   5.494
10385WAT     H131697   6.605   3.914   5.442
10385WAT     H231698   6.631   3.753   5.437
10386WAT      O31699   6.090   3.774   5.464
10386WAT     H131700   6.048   3.717   5.394
10386WAT     H231701   6.024   3.843   5.496
10387WAT      O31702   6.159   4.594   4.753
10387WAT     H131703   6.203   4.683   4.744
10387WAT     H231704   6.096   4.594   4.830
10388WAT      O31705   6.946   4.586   4.769
10388WAT     H131706   6.871   4.586   4.703
10388WAT     H231707   6.983   4.494   4.778
10389WAT      O31708   6.795   4.249   3.999
10389WAT     H131709   6.808   4.165   4.053
10389WAT     H231710   6.766   4.323   4.059
10390WAT      O31711   5.893   3.937   4.955
10390WAT     H131712   5.870   3.974   5.045
10390WAT     H231713   5.863   3.842   4.949
10391WAT      O31714   5.623   5.034   5.006
10391WAT     H131715   5.676   4.985   5.074
10391WAT     H231716   5.645   5.132   5.011
10392WAT      O31717   6.318   4.358   4.788
10392WAT     H131718   6.377   4.332   4.712
10392WAT     H231719   6.290   4.454   4.777
10393WAT      O31720   5.893   3.787   4.342
10393WAT     H131721   5.882   3.881   4.375
10393WAT     H231722   5.888   3.724   4.419
10394WAT      O31723   7.208   4.091   4.098
10394WAT     H131724   7.210   4.015   4.162
10394WAT     H231725   7.160   4.168   4.138
10395WAT      O31726   6.609   4.490   4.690
10395WAT     H131727   6.624   4.511   4.786
10395WAT     H231728   6.579   4.395   4.681
10396WAT      O31729   6.566   5.297   5.424
10396WAT     H131730   6.546   5.341   5.336
10396WAT     H231731   6.605   5.206   5.408
10397WAT      O31732   5.936   4.622   5.528
10397WAT     H131733   6.012   4.666   5.576
10397WAT     H231734   5.971   4.575   5.446
10398WAT      O31735   6.889   4.562   3.766
10398WAT     H131736   6.923   4.469   3.781
10398WAT     H231737   6.907   4.589   3.671
10399WAT      O31738   6.654   5.057   4.573
10399WAT     H131739   6.661   4.973   4.518
10399WAT     H231740   6.716   5.126   4.537
10400WAT      O31741   5.905   4.534   4.673
10400WAT     H131742   5.998   4.570   4.678
10400WAT     H231743   5.899   4.449   4.725
10401WAT      O31744   5.925   4.233   4.730
10401WAT     H131745   5.873   4.150   4.713
10401WAT     H231746   6.002   4.238   4.666
10402WAT      O31747   6.724   4.104   5.402
10402WAT     H131748   6.679   4.167   5.466
10402WAT     H231749   6.817   4.135   5.385
10403WAT      O31750   6.746   3.931   5.201
10403WAT     H131751   6.746   3.995   5.278
10403WAT     H231752   6.774   3.979   5.118
10404WAT      O31753   5.594   5.050   3.924
10404WAT     H131754   5.501   5.071   3.893
10404WAT     H231755   5.604   4.951   3.937
10405WAT      O31756   5.674   5.525   4.651
10405WAT     H131757   5.632   5.439   4.624
10405WAT     H231758   5.768   5.528   4.617
10406WAT      O31759   6.090   5.292   4.634
10406WAT     H131760   6.156   5.366   4.643
10406WAT     H231761   6.134   5.213   4.592
10407WAT      O31762   6.588   4.520   4.962
10407WAT     H131763   6.629   4.488   5.048
10407WAT     H231764   6.492   4.493   4.959
10408WAT      O31765   5.626   4.268   4.838
10408WAT     H131766   5.711   4.235   4.797
10408WAT     H231767   5.639   4.283   4.936
10409WAT      O31768   5.775   4.244   5.446
10409WAT     H131769   5.834   4.204   5.376
10409WAT     H231770   5.717   4.315   5.405
10410WAT      O31771   6.401   4.296   4.049
10410WAT     H131772   6.408   4.207   4.003
10410WAT     H231773   6.307   4.330   4.041
10411WAT      O31774   5.838   5.288   5.468
10411WAT     H131775   5.808   5.345   5.544
10411WAT     H231776   5.831   5.191   5.494
10412WAT      O31777   6.257   4.188   4.993
10412WAT     H131778   6.223   4.099   4.963
10412WAT     H231779   6.283   4.242   4.913
10413WAT      O31780   6.516   5.402   5.189
10413WAT     H131781   6.492   5.384   5.094
10413WAT     H231782   6.546   5.496   5.199
10414WAT      O31783   6.059   4.224   3.915
10414WAT     H131784   6.120   4.304   3.919
10414WAT     H231785   5.964   4.255   3.922
10415WAT      O31786   5.745   4.861   5.190
10415WAT     H131787   5.767   4.800   5.266
10415WAT     H231788   5.755   4.812   5.104
10416WAT      O31789   6.933   4.783   4.958
10416WAT     H131790   6.957   4.720   4.884
10416WAT     H231791   6.843   4.823   4.940
10417WAT      O31792   6.888   4.579   4.033
10417WAT     H131793   6.802   4.548   4.075
10417WAT     H231794   6.884   4.565   3.934
10418WAT      O31795   6.838   5.455   4.852
10418WAT     H131796   6.922   5.460   4.798
10418WAT     H231797   6.815   5.359   4.870
10419WAT      O31798   5.669   4.982   4.746
10419WAT     H131799   5.664   4.981   4.846
10419WAT     H231800   5.586   4.941   4.708
10420WAT      O31801   6.274   5.386   5.440
10420WAT     H131802   6.218   5.467   5.449
10420WAT     H231803   6.326   5.390   5.354
10421WAT      O31804   6.974   5.297   4.201
10421WAT     H131805   7.041   5.309   4.127
10421WAT     H231806   6.934   5.386   4.224
10422WAT      O31807   5.716   5.518   5.575
10422WAT     H131808   5.675   5.444   5.628
10422WAT     H231809   5.780   5.569   5.633
10423WAT      O31810   6.866   4.651   4.396
10423WAT     H131811   6.926   4.570   4.398
10423WAT     H231812   6.906   4.720   4.336
10424WAT      O31813   6.416   4.997   5.146
10424WAT     H131814   6.411   5.030   5.241
10424WAT     H231815   6.330   5.016   5.100
10425WAT      O31816   6.258   5.340   3.878
10425WAT     H131817   6.267   5.350   3.779
10425WAT     H231818   6.218   5.251   3.899
10426WAT      O31819   5.849   4.050   4.444
10426WAT     H131820   5.770   4.101   4.410
10426WAT     H231821   5.840   4.035   4.542
10427WAT      O31822   6.780   5.336   3.755
10427WAT     H131823   6.786   5.243   3.792
10427WAT     H231824   6.721   5.336   3.675
10428WAT      O31825   6.408   4.726   5.096
10428WAT     H131826   6.448   4.725   5.004
10428WAT     H231827   6.418   4.818   5.136
10429WAT      O31828   6.502   4.634   4.015
10429WAT     H131829   6.565   4.672   3.947
10429WAT     H231830   6.542   4.551   4.054
10430WAT      O31831   5.958   5.012   5.214
10430WAT     H131832   5.945   5.105   5.180
10430WAT     H231833   5.874   4.960   5.201
10431WAT      O31834   6.625   4.822   4.420
10431WAT     H131835   6.555   4.775   4.474
10431WAT     H231836   6.684   4.754   4.377
10432WAT      O31837   6.600   3.960   4.695
10432WAT     H131838   6.592   3.924   4.602
10432WAT     H231839   6.598   3.884   4.760
10433WAT      O31840   6.176   5.211   4.215
10433WAT     H131841   6.218   5.153   4.145
10433WAT     H231842   6.132   5.290   4.171
10434WAT      O31843   5.841   5.072   4.014
10434WAT     H131844   5.745   5.073   3.987
10434WAT     H231845   5.853   5.125   4.098
10435WAT      O31846   5.691   4.737   5.450
10435WAT     H131847   5.614   4.704   5.504
10435WAT     H231848   5.776   4.707   5.492
10436WAT      O31849   6.258   3.927   5.213
10436WAT     H131850   6.348   3.911   5.173
10436WAT     H231851   6.266   3.932   5.312
10437WAT      O31852   5.661   4.069   3.757
10437WAT     H131853   5.569   4.041   3.728
10437WAT     H231854   5.692   4.146   3.701
10438WAT      O31855   5.658   3.890   4.042
10438WAT     H131856   5.641   3.973   3.988
10438WAT     H231857   5.748   3.853   4.020
10439WAT      O31858   6.199   4.566   5.155
10439WAT     H131859   6.255   4.647   5.138
10439WAT     H231860   6.258   4.486   5.158
10440WAT      O31861   6.302   4.289   5.432
10440WAT     H131862   6.321   4.354   5.506
10440WAT     H231863   6.362   4.209   5.441
10441WAT      O31864   7.036   4.944   5.357
10441WAT     H131865   7.027   4.934   5.456
10441WAT     H231866   7.132   4.937   5.331
10442WAT      O31867   5.976   5.465   5.284
10442WAT     H131868   5.885   5.506   5.282
10442WAT     H231869   5.969   5.371   5.316
10443WAT      O31870   6.811   4.049   4.173
10443WAT     H131871   6.876   3.975   4.162
10443WAT     H231872   6.831   4.099   4.257
10444WAT      O31873   6.180   4.469   4.376
10444WAT     H131874   6.230   4.554   4.357
10444WAT     H231875   6.092   4.471   4.328
10445WAT      O31876   6.445   5.098   3.740
10445WAT     H131877   6.399   5.113   3.828
10445WAT     H231878   6.489   5.183   3.710
10446WAT      O31879   6.247   5.514   4.677
10446WAT     H131880   6.201   5.602   4.664
10446WAT     H231881   6.346   5.526   4.670
10447WAT      O31882   6.445   4.680   4.585
10447WAT     H131883   6.499   4.611   4.633
10447WAT     H231884   6.413   4.749   4.651
10448WAT      O31885   6.669   4.708   3.811
10448WAT     H131886   6.646   4.761   3.729
10448WAT     H231887   6.750   4.652   3.792
10449WAT      O31888   5.807   5.038   5.568
10449WAT     H131889   5.742   4.965   5.547
10449WAT     H231890   5.811   5.052   5.666
10450WAT      O31891   5.665   4.964   4.377
10450WAT     H131892   5.664   4.917   4.465
10450WAT     H231893   5.747   4.936   4.326
10451WAT      O31894   6.258   5.115   5.348
10451WAT     H131895   6.180   5.065   5.386
10451WAT     H231896   6.255   5.210   5.379
10452WAT      O31897   6.014   4.148   4.244
10452WAT     H131898   6.044   4.076   4.182
10452WAT     H231899   5.975   4.108   4.327
10453WAT      O31900   5.903   4.271   5.004
10453WAT     H131901   5.941   4.212   5.076
10453WAT     H231902   5.943   4.245   4.916
10454WAT      O31903   6.398   5.310   4.411
10454WAT     H131904   6.430   5.320   4.317
10454WAT     H231905   6.319   5.248   4.413
10455WAT      O31906   7.010   3.938   4.836
10455WAT     H131907   7.062   3.873   4.891
10455WAT     H231908   6.961   4.001   4.897
10456WAT      O31909   6.587   3.758   4.878
10456WAT     H131910   6.524   3.686   4.847
10456WAT     H231911   6.680   3.722   4.878
10457WAT      O31912   6.356   5.054   4.025
10457WAT     H131913   6.310   4.967   4.042
10457WAT     H231914   6.447   5.051   4.066
10458WAT      O31915   6.204   5.291   5.008
10458WAT     H131916   6.199   5.373   5.065
10458WAT     H231917   6.293   5.288   4.963
10459WAT      O31918   6.938   3.776   3.892
10459WAT     H131919   6.973   3.735   3.808
10459WAT     H231920   6.848   3.738   3.912
10460WAT      O31921   5.625   4.801   4.024
10460WAT     H131922   5.724   4.790   4.015
10460WAT     H231923   5.585   4.715   4.056
10461WAT      O31924   6.461   5.370   4.061
10461WAT     H131925   6.384   5.335   4.007
10461WAT     H231926   6.429   5.441   4.123
10462WAT      O31927   5.816   4.352   5.699
10462WAT     H131928   5.723   4.350   5.736
10462WAT     H231929   5.817   4.313   5.607
10463WAT      O31930   5.811   3.999   6.582
10463WAT     H131931   5.846   3.982   6.674
10463WAT     H231932   5.723   3.954   6.570
10464WAT      O31933   5.605   4.092   6.233
10464WAT     H131934   5.523   4.135   6.272
10464WAT     H231935   5.577   4.019   6.170
10465WAT      O31936   6.155   4.999   6.751
10465WAT     H131937   6.062   4.992   6.714
10465WAT     H231938   6.166   5.088   6.795
10466WAT      O31939   7.141   5.235   6.289
10466WAT     H131940   7.084   5.219   6.370
10466WAT     H231941   7.082   5.245   6.209
10467WAT      O31942   6.721   4.427   6.303
10467WAT     H131943   6.778   4.505   6.278
10467WAT     H231944   6.661   4.453   6.379
10468WAT      O31945   6.354   4.868   6.609
10468WAT     H131946   6.276   4.885   6.669
10468WAT     H231947   6.388   4.955   6.573
10469WAT      O31948   6.271   4.736   6.251
10469WAT     H131949   6.340   4.720   6.321
10469WAT     H231950   6.198   4.793   6.289
10470WAT      O31951   5.921   5.159   6.647
10470WAT     H131952   5.843   5.128   6.594
10470WAT     H231953   5.979   5.217   6.590
10471WAT      O31954   5.817   5.437   6.069
10471WAT     H131955   5.851   5.514   6.123
10471WAT     H231956   5.861   5.437   5.979
10472WAT      O31957   5.816   5.158   6.124
10472WAT     H131958   5.790   5.254   6.124
10472WAT     H231959   5.745   5.104   6.169
10473WAT      O31960   5.826   4.815   6.472
10473WAT     H131961   5.840   4.731   6.524
10473WAT     H231962   5.771   4.879   6.527
10474WAT      O31963   6.206   5.510   7.025
10474WAT     H131964   6.114   5.493   7.060
10474WAT     H231965   6.234   5.602   7.051
10475WAT      O31966   6.192   4.688   5.709
10475WAT     H131967   6.199   4.772   5.655
10475WAT     H231968   6.238   4.701   5.797
10476WAT      O31969   7.180   3.838   7.066
10476WAT     H131970   7.162   3.905   6.994
10476WAT     H231971   7.177   3.884   7.155
10477WAT      O31972   5.708   4.367   6.149
10477WAT     H131973   5.663   4.279   6.166
10477WAT     H231974   5.707   4.421   6.233
10478WAT      O31975   5.613   5.320   5.703
10478WAT     H131976   5.594   5.224   5.724
10478WAT     H231977   5.580   5.378   5.778
10479WAT      O31978   6.199   5.089   6.312
10479WAT     H131979   6.150   5.002   6.321
10479WAT     H231980   6.176   5.132   6.225
10480WAT      O31981   6.879   4.952   7.009
10480WAT     H131982   6.916   4.879   6.951
10480WAT     H231983   6.931   4.957   7.094
10481WAT      O31984   6.395   3.728   6.088
10481WAT     H131985   6.435   3.819   6.079
10481WAT     H231986   6.295   3.736   6.094
10482WAT      O31987   5.783   4.700   6.850
10482WAT     H131988   5.872   4.655   6.836
10482WAT     H231989   5.710   4.635   6.831
10483WAT      O31990   6.184   4.453   5.856
10483WAT     H131991   6.208   4.522   5.788
10483WAT     H231992   6.106   4.486   5.910
10484WAT      O31993   6.867   4.069   6.530
10484WAT     H131994   6.781   4.019   6.517
10484WAT     H231995   6.929   4.015   6.586
10485WAT      O31996   6.393   4.329   7.051
10485WAT     H131997   6.346   4.326   7.140
10485WAT     H231998   6.342   4.274   6.985
10486WAT      O31999   6.577   4.134   6.828
10486WAT     H132000   6.500   4.168   6.882
10486WAT     H232001   6.543   4.083   6.749
10487WAT      O32002   6.627   4.425   6.015
10487WAT     H132003   6.653   4.421   6.111
10487WAT     H232004   6.542   4.374   6.001
10488WAT      O32005   5.662   4.535   6.375
10488WAT     H132006   5.761   4.523   6.384
10488WAT     H232007   5.638   4.630   6.396
10489WAT      O32008   5.716   5.545   7.157
10489WAT     H132009   5.706   5.530   7.256
10489WAT     H232010   5.630   5.581   7.121
10490WAT      O32011   6.451   4.072   5.781
10490WAT     H132012   6.510   4.135   5.732
10490WAT     H232013   6.470   3.978   5.752
10491WAT      O32014   6.948   4.868   6.131
10491WAT     H132015   7.031   4.839   6.083
10491WAT     H232016   6.899   4.935   6.075
10492WAT      O32017   6.136   3.920   6.471
10492WAT     H132018   6.131   3.915   6.571
10492WAT     H232019   6.138   4.016   6.442
10493WAT      O32020   6.594   5.180   6.063
10493WAT     H132021   6.548   5.252   6.011
10493WAT     H232022   6.590   5.200   6.161
10494WAT      O32023   5.937   5.525   6.439
10494WAT     H132024   5.987   5.439   6.445
10494WAT     H232025   6.002   5.602   6.436
10495WAT      O32026   5.907   4.667   5.828
10495WAT     H132027   5.989   4.706   5.786
10495WAT     H232028   5.880   4.585   5.779
10496WAT      O32029   6.697   5.500   5.823
10496WAT     H132030   6.637   5.438   5.873
10496WAT     H232031   6.728   5.456   5.738
10497WAT      O32032   6.050   5.467   5.909
10497WAT     H132033   6.083   5.506   5.995
10497WAT     H232034   6.126   5.460   5.844
10498WAT      O32035   5.835   5.509   6.827
10498WAT     H132036   5.892   5.444   6.877
10498WAT     H232037   5.819   5.476   6.734
10499WAT      O32038   6.526   5.422   6.490
10499WAT     H132039   6.606   5.365   6.511
10499WAT     H232040   6.477   5.382   6.413
10500WAT      O32041   5.968   4.424   6.066
10500WAT     H132042   6.013   4.334   6.063
10500WAT     H232043   5.874   4.413   6.099
10501WAT      O32044   6.200   3.846   5.703
10501WAT     H132045   6.298   3.824   5.710
10501WAT     H232046   6.169   3.829   5.610
10502WAT      O32047   6.474   5.238   6.781
10502WAT     H132048   6.451   5.213   6.687
10502WAT     H232049   6.535   5.169   6.820
10503WAT      O32050   6.389   5.126   6.510
10503WAT     H132051   6.479   5.140   6.468
10503WAT     H232052   6.318   5.128   6.439
10504WAT      O32053   6.508   4.227   6.485
10504WAT     H132054   6.483   4.218   6.389
10504WAT     H232055   6.556   4.145   6.516
10505WAT      O32056   6.125   3.788   6.098
10505WAT     H132057   6.044   3.789   6.156
10505WAT     H232058   6.128   3.871   6.043
10506WAT      O32059   7.020   4.912   5.627
10506WAT     H132060   7.052   4.836   5.684
10506WAT     H232061   6.928   4.939   5.657
10507WAT      O32062   5.883   3.759   5.757
10507WAT     H132063   5.932   3.843   5.736
10507WAT     H232064   5.945   3.694   5.802
10508WAT      O32065   6.521   3.960   6.066
10508WAT     H132066   6.473   4.001   5.988
10508WAT     H232067   6.620   3.958   6.047
10509WAT      O32068   6.813   5.294   6.379
10509WAT     H132069   6.834   5.368   6.314
10509WAT     H232070   6.881   5.294   6.452
10510WAT      O32071   6.045   4.876   6.327
10510WAT     H132072   5.974   4.849   6.392
10510WAT     H232073   6.019   4.848   6.234
10511WAT      O32074   6.857   5.521   6.177
10511WAT     H132075   6.901   5.585   6.113
10511WAT     H232076   6.807   5.573   6.247
10512WAT      O32077   6.618   4.273   5.602
10512WAT     H132078   6.577   4.355   5.563
10512WAT     H232079   6.682   4.299   5.675
10513WAT      O32080   6.147   3.946   6.733
10513WAT     H132081   6.185   3.862   6.770
10513WAT     H232082   6.059   3.965   6.777
10514WAT      O32083   6.452   4.178   6.228
10514WAT     H132084   6.420   4.250   6.166
10514WAT     H232085   6.476   4.097   6.175
10515WAT      O32086   6.603   3.763   6.339
10515WAT     H132087   6.531   3.768   6.270
10515WAT     H232088   6.579   3.694   6.408
10516WAT      O32089   6.074   5.109   5.760
10516WAT     H132090   5.987   5.094   5.807
10516WAT     H232091   6.057   5.135   5.665
10517WAT      O32092   6.113   3.980   5.914
10517WAT     H132093   6.140   3.921   5.839
10517WAT     H232094   6.113   4.075   5.883
10518WAT      O32095   7.178   5.353   7.211
10518WAT     H132096   7.205   5.387   7.121
10518WAT     H232097   7.257   5.315   7.257
10519WAT      O32098   6.697   4.919   6.686
10519WAT     H132099   6.657   4.963   6.767
10519WAT     H232100   6.656   4.956   6.603
10520WAT      O32101   6.291   4.774   5.954
10520WAT     H132102   6.277   4.781   6.053
10520WAT     H232103   6.375   4.723   5.936
10521WAT      O32104   5.996   4.537   6.837
10521WAT     H132105   6.082   4.549   6.887
10521WAT     H232106   5.954   4.450   6.864
10522WAT      O32107   6.860   4.110   6.848
10522WAT     H132108   6.881   4.184   6.912
10522WAT     H232109   6.771   4.127   6.805
10523WAT      O32110   5.650   5.288   6.917
10523WAT     H132111   5.604   5.370   6.883
10523WAT     H232112   5.748   5.307   6.926
10524WAT      O32113   5.953   4.824   6.087
10524WAT     H132114   5.946   4.907   6.031
10524WAT     H232115   5.957   4.744   6.027
10525WAT      O32116   6.152   4.261   6.451
10525WAT     H132117   6.164   4.327   6.377
10525WAT     H232118   6.198   4.295   6.534
10526WAT      O32119   6.838   5.072   5.974
10526WAT     H132120   6.888   5.149   6.014
10526WAT     H232121   6.743   5.074   6.006
10527WAT      O32122   6.858   5.169   6.728
10527WAT     H132123   6.905   5.182   6.815
10527WAT     H232124   6.792   5.095   6.737
10528WAT      O32125   5.940   5.234   6.915
10528WAT     H132126   5.919   5.190   6.828
10528WAT     H232127   6.037   5.260   6.918
10529WAT      O32128   6.159   4.594   6.615
10529WAT     H132129   6.203   4.683   6.606
10529WAT     H232130   6.096   4.594   6.692
10530WAT      O32131   6.946   4.586   6.631
10530WAT     H132132   6.871   4.586   6.565
10530WAT     H232133   6.983   4.494   6.640
10531WAT      O32134   6.795   4.249   5.861
10531WAT     H132135   6.808   4.165   5.915
10531WAT     H232136   6.766   4.323   5.921
10532WAT      O32137   5.893   3.937   6.817
10532WAT     H132138   5.870   3.974   6.907
10532WAT     H232139   5.863   3.842   6.811
10533WAT      O32140   5.623   5.034   6.868
10533WAT     H132141   5.676   4.985   6.936
10533WAT     H232142   5.645   5.132   6.873
10534WAT      O32143   6.318   4.358   6.650
10534WAT     H132144   6.377   4.332   6.574
10534WAT     H232145   6.290   4.454   6.639
10535WAT      O32146   5.893   3.787   6.204
10535WAT     H132147   5.882   3.881   6.237
10535WAT     H232148   5.888   3.724   6.281
10536WAT      O32149   7.208   4.091   5.960
10536WAT     H132150   7.210   4.015   6.024
10536WAT     H232151   7.160   4.168   6.000
10537WAT      O32152   6.609   4.490   6.552
10537WAT     H132153   6.624   4.511   6.648
10537WAT     H232154   6.579   4.395   6.543
10538WAT      O32155   6.889   4.562   5.628
10538WAT     H132156   6.923   4.469   5.643
10538WAT     H232157   6.907   4.589   5.533
10539WAT      O32158   6.654   5.057   6.435
10539WAT     H132159   6.661   4.973   6.380
10539WAT     H232160   6.716   5.126   6.399
10540WAT      O32161   5.905   4.534   6.535
10540WAT     H132162   5.998   4.570   6.540
10540WAT     H232163   5.899   4.449   6.587
10541WAT      O32164   5.925   4.233   6.592
10541WAT     H132165   5.873   4.150   6.575
10541WAT     H232166   6.002   4.238   6.528
10542WAT      O32167   6.746   3.931   7.063
10542WAT     H132168   6.746   3.995   7.140
10542WAT     H232169   6.774   3.979   6.980
10543WAT      O32170   5.594   5.050   5.786
10543WAT     H132171   5.501   5.071   5.755
10543WAT     H232172   5.604   4.951   5.799
10544WAT      O32173   5.674   5.525   6.513
10544WAT     H132174   5.632   5.439   6.486
10544WAT     H232175   5.768   5.528   6.479
10545WAT      O32176   6.090   5.292   6.496
10545WAT     H132177   6.156   5.366   6.505
10545WAT     H232178   6.134   5.213   6.454
10546WAT      O32179   6.588   4.520   6.824
10546WAT     H132180   6.629   4.488   6.910
10546WAT     H232181   6.492   4.493   6.821
10547WAT      O32182   5.626   4.268   6.700
10547WAT     H132183   5.711   4.235   6.659
10547WAT     H232184   5.639   4.283   6.798
10548WAT      O32185   6.401   4.296   5.911
10548WAT     H132186   6.408   4.207   5.865
10548WAT     H232187   6.307   4.330   5.903
10549WAT      O32188   6.257   4.188   6.855
10549WAT     H132189   6.223   4.099   6.825
10549WAT     H232190   6.283   4.242   6.775
10550WAT      O32191   6.516   5.402   7.051
10550WAT     H132192   6.492   5.384   6.956
10550WAT     H232193   6.546   5.496   7.061
10551WAT      O32194   6.059   4.224   5.777
10551WAT     H132195   6.120   4.304   5.781
10551WAT     H232196   5.964   4.255   5.784
10552WAT      O32197   5.745   4.861   7.052
10552WAT     H132198   5.767   4.800   7.128
10552WAT     H232199   5.755   4.812   6.966
10553WAT      O32200   6.933   4.783   6.820
10553WAT     H132201   6.957   4.720   6.746
10553WAT     H232202   6.843   4.823   6.802
10554WAT      O32203   6.888   4.579   5.895
10554WAT     H132204   6.802   4.548   5.937
10554WAT     H232205   6.884   4.565   5.796
10555WAT      O32206   6.838   5.455   6.714
10555WAT     H132207   6.922   5.460   6.660
10555WAT     H232208   6.815   5.359   6.732
10556WAT      O32209   5.669   4.982   6.608
10556WAT     H132210   5.664   4.981   6.708
10556WAT     H232211   5.586   4.941   6.570
10557WAT      O32212   6.974   5.297   6.063
10557WAT     H132213   7.041   5.309   5.989
10557WAT     H232214   6.934   5.386   6.086
10558WAT      O32215   6.866   4.651   6.258
10558WAT     H132216   6.926   4.570   6.260
10558WAT     H232217   6.906   4.720   6.198
10559WAT      O32218   6.258   5.340   5.740
10559WAT     H132219   6.267   5.350   5.641
10559WAT     H232220   6.218   5.251   5.761
10560WAT      O32221   5.849   4.050   6.306
10560WAT     H132222   5.770   4.101   6.272
10560WAT     H232223   5.840   4.035   6.404
10561WAT      O32224   6.780   5.336   5.617
10561WAT     H132225   6.786   5.243   5.654
10561WAT     H232226   6.721   5.336   5.537
10562WAT      O32227   6.408   4.726   6.958
10562WAT     H132228   6.448   4.725   6.866
10562WAT     H232229   6.418   4.818   6.998
10563WAT      O32230   6.502   4.634   5.877
10563WAT     H132231   6.565   4.672   5.809
10563WAT     H232232   6.542   4.551   5.916
10564WAT      O32233   6.625   4.822   6.282
10564WAT     H132234   6.555   4.775   6.336
10564WAT     H232235   6.684   4.754   6.239
10565WAT      O32236   6.600   3.960   6.557
10565WAT     H132237   6.592   3.924   6.464
10565WAT     H232238   6.598   3.884   6.622
10566WAT      O32239   6.176   5.211   6.077
10566WAT     H132240   6.218   5.153   6.007
10566WAT     H232241   6.132   5.290   6.033
10567WAT      O32242   5.841   5.072   5.876
10567WAT     H132243   5.745   5.073   5.849
10567WAT     H232244   5.853   5.125   5.960
10568WAT      O32245   6.258   3.927   7.075
10568WAT     H132246   6.348   3.911   7.035
10568WAT     H232247   6.266   3.932   7.174
10569WAT      O32248   5.661   4.069   5.619
10569WAT     H132249   5.569   4.041   5.590
10569WAT     H232250   5.692   4.146   5.563
10570WAT      O32251   5.658   3.890   5.904
10570WAT     H132252   5.641   3.973   5.850
10570WAT     H232253   5.748   3.853   5.882
10571WAT      O32254   5.976   5.465   7.146
10571WAT     H132255   5.885   5.506   7.144
10571WAT     H232256   5.969   5.371   7.178
10572WAT      O32257   6.811   4.049   6.035
10572WAT     H132258   6.876   3.975   6.024
10572WAT     H232259   6.831   4.099   6.119
10573WAT      O32260   6.180   4.469   6.238
10573WAT     H132261   6.230   4.554   6.219
10573WAT     H232262   6.092   4.471   6.190
10574WAT      O32263   6.445   5.098   5.602
10574WAT     H132264   6.399   5.113   5.690
10574WAT     H232265   6.489   5.183   5.572
10575WAT      O32266   6.247   5.514   6.539
10575WAT     H132267   6.201   5.602   6.526
10575WAT     H232268   6.346   5.526   6.532
10576WAT      O32269   6.445   4.680   6.447
10576WAT     H132270   6.499   4.611   6.495
10576WAT     H232271   6.413   4.749   6.513
10577WAT      O32272   6.669   4.708   5.673
10577WAT     H132273   6.646   4.761   5.591
10577WAT     H232274   6.750   4.652   5.654
10578WAT      O32275   5.665   4.964   6.239
10578WAT     H132276   5.664   4.917   6.327
10578WAT     H232277   5.747   4.936   6.188
10579WAT      O32278   6.014   4.148   6.106
10579WAT     H132279   6.044   4.076   6.044
10579WAT     H232280   5.975   4.108   6.189
10580WAT      O32281   5.903   4.271   6.866
10580WAT     H132282   5.941   4.212   6.938
10580WAT     H232283   5.943   4.245   6.778
10581WAT      O32284   6.398   5.310   6.273
10581WAT     H132285   6.430   5.320   6.179
10581WAT     H232286   6.319   5.248   6.275
10582WAT      O32287   7.010   3.938   6.698
10582WAT     H132288   7.062   3.873   6.753
10582WAT     H232289   6.961   4.001   6.759
10583WAT      O32290   6.587   3.758   6.740
10583WAT     H132291   6.524   3.686   6.709
10583WAT     H232292   6.680   3.722   6.740
10584WAT      O32293   6.356   5.054   5.887
10584WAT     H132294   6.310   4.967   5.904
10584WAT     H232295   6.447   5.051   5.928
10585WAT      O32296   6.204   5.291   6.870
10585WAT     H132297   6.199   5.373   6.927
10585WAT     H232298   6.293   5.288   6.825
10586WAT      O32299   6.938   3.776   5.754
10586WAT     H132300   6.973   3.735   5.670
10586WAT     H232301   6.848   3.738   5.774
10587WAT      O32302   5.625   4.801   5.886
10587WAT     H132303   5.724   4.790   5.877
10587WAT     H232304   5.585   4.715   5.918
10588WAT      O32305   6.461   5.370   5.923
10588WAT     H132306   6.384   5.335   5.869
10588WAT     H232307   6.429   5.441   5.985
10589WAT      O32308   5.816   6.214   0.113
10589WAT     H132309   5.723   6.212   0.150
10589WAT     H232310   5.817   6.175   0.021
10590WAT      O32311   5.811   5.861   0.996
10590WAT     H132312   5.846   5.844   1.088
10590WAT     H232313   5.723   5.816   0.984
10591WAT      O32314   5.605   5.954   0.647
10591WAT     H132315   5.523   5.997   0.686
10591WAT     H232316   5.577   5.881   0.584
10592WAT      O32317   6.155   6.861   1.165
10592WAT     H132318   6.062   6.854   1.128
10592WAT     H232319   6.166   6.950   1.209
10593WAT      O32320   7.141   7.097   0.703
10593WAT     H132321   7.084   7.081   0.784
10593WAT     H232322   7.082   7.107   0.623
10594WAT      O32323   6.721   6.289   0.717
10594WAT     H132324   6.778   6.367   0.692
10594WAT     H232325   6.661   6.315   0.793
10595WAT      O32326   6.354   6.730   1.023
10595WAT     H132327   6.276   6.747   1.083
10595WAT     H232328   6.388   6.817   0.987
10596WAT      O32329   6.436   6.384   1.823
10596WAT     H132330   6.432   6.460   1.888
10596WAT     H232331   6.458   6.420   1.732
10597WAT      O32332   6.271   6.598   0.665
10597WAT     H132333   6.340   6.582   0.735
10597WAT     H232334   6.198   6.655   0.703
10598WAT      O32335   6.272   6.747   1.803
10598WAT     H132336   6.332   6.826   1.817
10598WAT     H232337   6.186   6.778   1.762
10599WAT      O32338   5.921   7.021   1.061
10599WAT     H132339   5.843   6.990   1.008
10599WAT     H232340   5.979   7.079   1.004
10600WAT      O32341   6.024   5.978   1.499
10600WAT     H132342   6.106   5.922   1.508
10600WAT     H232343   5.943   5.920   1.503
10601WAT      O32344   5.826   6.677   0.886
10601WAT     H132345   5.840   6.593   0.938
10601WAT     H232346   5.771   6.741   0.941
10602WAT      O32347   6.192   6.550   0.123
10602WAT     H132348   6.199   6.634   0.069
10602WAT     H232349   6.238   6.563   0.211
10603WAT      O32350   5.708   6.229   0.563
10603WAT     H132351   5.663   6.141   0.580
10603WAT     H232352   5.707   6.283   0.647
10604WAT      O32353   5.699   6.323   1.597
10604WAT     H132354   5.787   6.310   1.642
10604WAT     H232355   5.686   6.420   1.575
10605WAT      O32356   6.879   6.814   1.423
10605WAT     H132357   6.916   6.741   1.365
10605WAT     H232358   6.931   6.819   1.508
10606WAT      O32359   6.395   5.590   0.502
10606WAT     H132360   6.435   5.681   0.493
10606WAT     H232361   6.295   5.598   0.508
10607WAT      O32362   5.783   6.562   1.264
10607WAT     H132363   5.872   6.517   1.250
10607WAT     H232364   5.710   6.497   1.245
10608WAT      O32365   5.903   5.837   1.801
10608WAT     H132366   5.974   5.908   1.807
10608WAT     H232367   5.815   5.876   1.829
10609WAT      O32368   6.184   6.315   0.270
10609WAT     H132369   6.208   6.384   0.202
10609WAT     H232370   6.106   6.348   0.324
10610WAT      O32371   6.867   5.931   0.944
10610WAT     H132372   6.781   5.881   0.931
10610WAT     H232373   6.929   5.877   1.000
10611WAT      O32374   6.393   6.191   1.465
10611WAT     H132375   6.346   6.188   1.554
10611WAT     H232376   6.342   6.136   1.399
10612WAT      O32377   6.980   6.055   1.674
10612WAT     H132378   6.960   6.098   1.762
10612WAT     H232379   7.058   5.993   1.683
10613WAT      O32380   6.559   6.476   1.572
10613WAT     H132381   6.605   6.392   1.543
10613WAT     H232382   6.503   6.510   1.497
10614WAT      O32383   6.577   5.996   1.242
10614WAT     H132384   6.500   6.030   1.296
10614WAT     H232385   6.543   5.945   1.163
10615WAT      O32386   6.627   6.287   0.429
10615WAT     H132387   6.653   6.283   0.525
10615WAT     H232388   6.542   6.236   0.415
10616WAT      O32389   5.662   6.397   0.789
10616WAT     H132390   5.761   6.385   0.798
10616WAT     H232391   5.638   6.492   0.810
10617WAT      O32392   6.451   5.934   0.195
10617WAT     H132393   6.510   5.997   0.146
10617WAT     H232394   6.470   5.840   0.166
10618WAT      O32395   6.948   6.730   0.545
10618WAT     H132396   7.031   6.701   0.497
10618WAT     H232397   6.899   6.797   0.489
10619WAT      O32398   6.136   5.782   0.885
10619WAT     H132399   6.131   5.777   0.985
10619WAT     H232400   6.138   5.878   0.856
10620WAT      O32401   5.907   6.529   0.242
10620WAT     H132402   5.989   6.568   0.200
10620WAT     H232403   5.880   6.447   0.193
10621WAT      O32404   5.788   5.871   1.498
10621WAT     H132405   5.708   5.931   1.485
10621WAT     H232406   5.778   5.822   1.584
10622WAT      O32407   5.968   6.286   0.480
10622WAT     H132408   6.013   6.196   0.477
10622WAT     H232409   5.874   6.275   0.513
10623WAT      O32410   6.367   5.850   1.749
10623WAT     H132411   6.434   5.789   1.792
10623WAT     H232412   6.294   5.869   1.814
10624WAT      O32413   6.508   6.089   0.899
10624WAT     H132414   6.483   6.080   0.803
10624WAT     H232415   6.556   6.007   0.930
10625WAT      O32416   6.125   5.650   0.512
10625WAT     H132417   6.044   5.651   0.570
10625WAT     H232418   6.128   5.733   0.457
10626WAT      O32419   6.521   5.822   0.480
10626WAT     H132420   6.473   5.863   0.402
10626WAT     H232421   6.620   5.820   0.461
10627WAT      O32422   6.662   6.269   1.464
10627WAT     H132423   6.582   6.208   1.467
10627WAT     H232424   6.743   6.216   1.440
10628WAT      O32425   6.813   7.156   0.793
10628WAT     H132426   6.834   7.230   0.728
10628WAT     H232427   6.881   7.156   0.866
10629WAT      O32428   6.045   6.738   0.741
10629WAT     H132429   5.974   6.711   0.806
10629WAT     H232430   6.019   6.710   0.648
10630WAT      O32431   6.618   6.135   0.016
10630WAT     H132432   6.577   6.217  -0.023
10630WAT     H232433   6.682   6.161   0.089
10631WAT      O32434   5.664   6.142   1.386
10631WAT     H132435   5.756   6.141   1.345
10631WAT     H232436   5.658   6.216   1.453
10632WAT      O32437   6.147   5.808   1.147
10632WAT     H132438   6.185   5.724   1.184
10632WAT     H232439   6.059   5.827   1.191
10633WAT      O32440   6.452   6.040   0.642
10633WAT     H132441   6.420   6.112   0.580
10633WAT     H232442   6.476   5.959   0.589
10634WAT      O32443   6.603   5.625   0.753
10634WAT     H132444   6.531   5.630   0.684
10634WAT     H232445   6.579   5.556   0.822
10635WAT      O32446   6.113   5.842   0.328
10635WAT     H132447   6.140   5.783   0.253
10635WAT     H232448   6.113   5.937   0.297
10636WAT      O32449   6.650   6.933   1.340
10636WAT     H132450   6.570   6.910   1.395
10636WAT     H232451   6.733   6.907   1.389
10637WAT      O32452   6.697   6.781   1.100
10637WAT     H132453   6.657   6.825   1.181
10637WAT     H232454   6.656   6.818   1.017
10638WAT      O32455   6.501   5.675   1.402
10638WAT     H132456   6.526   5.655   1.307
10638WAT     H232457   6.573   5.731   1.444
10639WAT      O32458   6.566   6.702   1.719
10639WAT     H132459   6.467   6.708   1.729
10639WAT     H232460   6.589   6.622   1.663
10640WAT      O32461   6.291   6.636   0.368
10640WAT     H132462   6.277   6.643   0.467
10640WAT     H232463   6.375   6.585   0.350
10641WAT      O32464   5.996   6.399   1.251
10641WAT     H132465   6.082   6.411   1.301
10641WAT     H232466   5.954   6.312   1.278
10642WAT      O32467   6.860   5.972   1.262
10642WAT     H132468   6.881   6.046   1.326
10642WAT     H232469   6.771   5.989   1.219
10643WAT      O32470   5.953   6.686   0.501
10643WAT     H132471   5.946   6.769   0.445
10643WAT     H232472   5.957   6.606   0.441
10644WAT      O32473   6.152   6.123   0.865
10644WAT     H132474   6.164   6.189   0.791
10644WAT     H232475   6.198   6.157   0.948
10645WAT      O32476   6.838   6.934   0.388
10645WAT     H132477   6.888   7.011   0.428
10645WAT     H232478   6.743   6.936   0.420
10646WAT      O32479   5.988   6.337   1.598
10646WAT     H132480   6.056   6.392   1.551
10646WAT     H232481   6.028   6.249   1.625
10647WAT      O32482   6.599   5.691   1.770
10647WAT     H132483   6.605   5.776   1.718
10647WAT     H232484   6.631   5.615   1.713
10648WAT      O32485   6.090   5.636   1.740
10648WAT     H132486   6.048   5.579   1.670
10648WAT     H232487   6.024   5.705   1.772
10649WAT      O32488   6.159   6.456   1.029
10649WAT     H132489   6.203   6.545   1.020
10649WAT     H232490   6.096   6.456   1.106
10650WAT      O32491   6.946   6.448   1.045
10650WAT     H132492   6.871   6.448   0.979
10650WAT     H232493   6.983   6.356   1.054
10651WAT      O32494   6.795   6.111   0.275
10651WAT     H132495   6.808   6.027   0.329
10651WAT     H232496   6.766   6.185   0.335
10652WAT      O32497   5.893   5.799   1.231
10652WAT     H132498   5.870   5.836   1.321
10652WAT     H232499   5.863   5.704   1.225
10653WAT      O32500   5.623   6.896   1.282
10653WAT     H132501   5.676   6.847   1.350
10653WAT     H232502   5.645   6.994   1.287
10654WAT      O32503   6.318   6.220   1.064
10654WAT     H132504   6.377   6.194   0.988
10654WAT     H232505   6.290   6.316   1.053
10655WAT      O32506   5.893   5.649   0.618
10655WAT     H132507   5.882   5.743   0.651
10655WAT     H232508   5.888   5.586   0.695
10656WAT      O32509   7.208   5.953   0.374
10656WAT     H132510   7.210   5.877   0.438
10656WAT     H232511   7.160   6.030   0.414
10657WAT      O32512   6.609   6.352   0.966
10657WAT     H132513   6.624   6.373   1.062
10657WAT     H232514   6.579   6.257   0.957
10658WAT      O32515   5.936   6.484   1.804
10658WAT     H132516   6.012   6.528   1.852
10658WAT     H232517   5.971   6.437   1.722
10659WAT      O32518   6.889   6.424   0.042
10659WAT     H132519   6.923   6.331   0.057
10659WAT     H232520   6.907   6.451  -0.053
10660WAT      O32521   5.905   6.396   0.949
10660WAT     H132522   5.998   6.432   0.954
10660WAT     H232523   5.899   6.311   1.001
10661WAT      O32524   5.925   6.095   1.006
10661WAT     H132525   5.873   6.012   0.989
10661WAT     H232526   6.002   6.100   0.942
10662WAT      O32527   6.724   5.966   1.678
10662WAT     H132528   6.679   6.029   1.742
10662WAT     H232529   6.817   5.997   1.661
10663WAT      O32530   6.746   5.793   1.477
10663WAT     H132531   6.746   5.857   1.554
10663WAT     H232532   6.774   5.841   1.394
10664WAT      O32533   6.588   6.382   1.238
10664WAT     H132534   6.629   6.350   1.324
10664WAT     H232535   6.492   6.355   1.235
10665WAT      O32536   5.626   6.130   1.114
10665WAT     H132537   5.711   6.097   1.073
10665WAT     H232538   5.639   6.145   1.212
10666WAT      O32539   5.775   6.106   1.722
10666WAT     H132540   5.834   6.066   1.652
10666WAT     H232541   5.717   6.177   1.681
10667WAT      O32542   6.401   6.158   0.325
10667WAT     H132543   6.408   6.069   0.279
10667WAT     H232544   6.307   6.192   0.317
10668WAT      O32545   6.257   6.050   1.269
10668WAT     H132546   6.223   5.961   1.239
10668WAT     H232547   6.283   6.104   1.189
10669WAT      O32548   6.059   6.086   0.191
10669WAT     H132549   6.120   6.166   0.195
10669WAT     H232550   5.964   6.117   0.198
10670WAT      O32551   5.745   6.723   1.466
10670WAT     H132552   5.767   6.662   1.542
10670WAT     H232553   5.755   6.674   1.380
10671WAT      O32554   6.933   6.645   1.234
10671WAT     H132555   6.957   6.582   1.160
10671WAT     H232556   6.843   6.685   1.216
10672WAT      O32557   6.888   6.441   0.309
10672WAT     H132558   6.802   6.410   0.351
10672WAT     H232559   6.884   6.427   0.210
10673WAT      O32560   5.669   6.844   1.022
10673WAT     H132561   5.664   6.843   1.122
10673WAT     H232562   5.586   6.803   0.984
10674WAT      O32563   6.489   5.672   0.133
10674WAT     H132564   6.540   5.673   0.047
10674WAT     H232565   6.545   5.630   0.204
10675WAT      O32566   6.866   6.513   0.672
10675WAT     H132567   6.926   6.432   0.674
10675WAT     H232568   6.906   6.582   0.612
10676WAT      O32569   6.416   6.859   1.422
10676WAT     H132570   6.411   6.892   1.517
10676WAT     H232571   6.330   6.878   1.376
10677WAT      O32572   5.849   5.912   0.720
10677WAT     H132573   5.770   5.963   0.686
10677WAT     H232574   5.840   5.897   0.818
10678WAT      O32575   6.408   6.588   1.372
10678WAT     H132576   6.448   6.587   1.280
10678WAT     H232577   6.418   6.680   1.412
10679WAT      O32578   6.502   6.496   0.291
10679WAT     H132579   6.565   6.534   0.223
10679WAT     H232580   6.542   6.413   0.330
10680WAT      O32581   5.958   6.874   1.490
10680WAT     H132582   5.945   6.967   1.456
10680WAT     H232583   5.874   6.822   1.477
10681WAT      O32584   6.625   6.684   0.696
10681WAT     H132585   6.555   6.637   0.750
10681WAT     H232586   6.684   6.616   0.653
10682WAT      O32587   6.600   5.822   0.971
10682WAT     H132588   6.592   5.786   0.878
10682WAT     H232589   6.598   5.746   1.036
10683WAT      O32590   5.691   6.599   1.726
10683WAT     H132591   5.614   6.566   1.780
10683WAT     H232592   5.776   6.569   1.768
10684WAT      O32593   6.258   5.789   1.489
10684WAT     H132594   6.348   5.773   1.449
10684WAT     H232595   6.266   5.794   1.588
10685WAT      O32596   5.661   5.931   0.033
10685WAT     H132597   5.569   5.903   0.004
10685WAT     H232598   5.692   6.008  -0.023
10686WAT      O32599   5.658   5.752   0.318
10686WAT     H132600   5.641   5.835   0.264
10686WAT     H232601   5.748   5.715   0.296
10687WAT      O32602   6.199   6.428   1.431
10687WAT     H132603   6.255   6.509   1.414
10687WAT     H232604   6.258   6.348   1.434
10688WAT      O32605   6.302   6.151   1.708
10688WAT     H132606   6.321   6.216   1.782
10688WAT     H232607   6.362   6.071   1.717
10689WAT      O32608   7.036   6.806   1.633
10689WAT     H132609   7.027   6.796   1.732
10689WAT     H232610   7.132   6.799   1.607
10690WAT      O32611   6.811   5.911   0.449
10690WAT     H132612   6.876   5.837   0.438
10690WAT     H232613   6.831   5.961   0.533
10691WAT      O32614   6.180   6.331   0.652
10691WAT     H132615   6.230   6.416   0.633
10691WAT     H232616   6.092   6.333   0.604
10692WAT      O32617   6.445   6.542   0.861
10692WAT     H132618   6.499   6.473   0.909
10692WAT     H232619   6.413   6.611   0.927
10693WAT      O32620   6.669   6.570   0.087
10693WAT     H132621   6.646   6.623   0.005
10693WAT     H232622   6.750   6.514   0.068
10694WAT      O32623   5.807   6.900   1.844
10694WAT     H132624   5.742   6.827   1.823
10694WAT     H232625   5.811   6.914   1.942
10695WAT      O32626   5.665   6.826   0.653
10695WAT     H132627   5.664   6.779   0.741
10695WAT     H232628   5.747   6.798   0.602
10696WAT      O32629   6.258   6.977   1.624
10696WAT     H132630   6.180   6.927   1.662
10696WAT     H232631   6.255   7.072   1.655
10697WAT      O32632   6.014   6.010   0.520
10697WAT     H132633   6.044   5.938   0.458
10697WAT     H232634   5.975   5.970   0.603
10698WAT      O32635   5.903   6.133   1.280
10698WAT     H132636   5.941   6.074   1.352
10698WAT     H232637   5.943   6.107   1.192
10699WAT      O32638   7.010   5.800   1.112
10699WAT     H132639   7.062   5.735   1.167
10699WAT     H232640   6.961   5.863   1.173
10700WAT      O32641   6.587   5.620   1.154
10700WAT     H132642   6.524   5.548   1.123
10700WAT     H232643   6.680   5.584   1.154
10701WAT      O32644   6.356   6.916   0.301
10701WAT     H132645   6.310   6.829   0.318
10701WAT     H232646   6.447   6.913   0.342
10702WAT      O32647   5.625   6.663   0.300
10702WAT     H132648   5.724   6.652   0.291
10702WAT     H232649   5.585   6.577   0.332
10703WAT      O32650   5.816   6.214   1.975
10703WAT     H132651   5.723   6.212   2.012
10703WAT     H232652   5.817   6.175   1.883
10704WAT      O32653   5.811   5.861   2.858
10704WAT     H132654   5.846   5.844   2.950
10704WAT     H232655   5.723   5.816   2.846
10705WAT      O32656   5.605   5.954   2.509
10705WAT     H132657   5.523   5.997   2.548
10705WAT     H232658   5.577   5.881   2.446
10706WAT      O32659   6.155   6.861   3.027
10706WAT     H132660   6.062   6.854   2.990
10706WAT     H232661   6.166   6.950   3.071
10707WAT      O32662   7.141   7.097   2.565
10707WAT     H132663   7.084   7.081   2.646
10707WAT     H232664   7.082   7.107   2.485
10708WAT      O32665   6.721   6.289   2.579
10708WAT     H132666   6.778   6.367   2.554
10708WAT     H232667   6.661   6.315   2.655
10709WAT      O32668   6.354   6.730   2.885
10709WAT     H132669   6.276   6.747   2.945
10709WAT     H232670   6.388   6.817   2.849
10710WAT      O32671   6.436   6.384   3.685
10710WAT     H132672   6.432   6.460   3.750
10710WAT     H232673   6.458   6.420   3.594
10711WAT      O32674   6.271   6.598   2.527
10711WAT     H132675   6.340   6.582   2.597
10711WAT     H232676   6.198   6.655   2.565
10712WAT      O32677   6.272   6.747   3.665
10712WAT     H132678   6.332   6.826   3.679
10712WAT     H232679   6.186   6.778   3.624
10713WAT      O32680   5.921   7.021   2.923
10713WAT     H132681   5.843   6.990   2.870
10713WAT     H232682   5.979   7.079   2.866
10714WAT      O32683   6.024   5.978   3.361
10714WAT     H132684   6.106   5.922   3.370
10714WAT     H232685   5.943   5.920   3.365
10715WAT      O32686   5.826   6.677   2.748
10715WAT     H132687   5.840   6.593   2.800
10715WAT     H232688   5.771   6.741   2.803
10716WAT      O32689   6.192   6.550   1.985
10716WAT     H132690   6.199   6.634   1.931
10716WAT     H232691   6.238   6.563   2.073
10717WAT      O32692   5.708   6.229   2.425
10717WAT     H132693   5.663   6.141   2.442
10717WAT     H232694   5.707   6.283   2.509
10718WAT      O32695   5.699   6.323   3.459
10718WAT     H132696   5.787   6.310   3.504
10718WAT     H232697   5.686   6.420   3.437
10719WAT      O32698   6.879   6.814   3.285
10719WAT     H132699   6.916   6.741   3.227
10719WAT     H232700   6.931   6.819   3.370
10720WAT      O32701   6.395   5.590   2.364
10720WAT     H132702   6.435   5.681   2.355
10720WAT     H232703   6.295   5.598   2.370
10721WAT      O32704   5.783   6.562   3.126
10721WAT     H132705   5.872   6.517   3.112
10721WAT     H232706   5.710   6.497   3.107
10722WAT      O32707   5.903   5.837   3.663
10722WAT     H132708   5.974   5.908   3.669
10722WAT     H232709   5.815   5.876   3.691
10723WAT      O32710   6.184   6.315   2.132
10723WAT     H132711   6.208   6.384   2.064
10723WAT     H232712   6.106   6.348   2.186
10724WAT      O32713   6.867   5.931   2.806
10724WAT     H132714   6.781   5.881   2.793
10724WAT     H232715   6.929   5.877   2.862
10725WAT      O32716   6.393   6.191   3.327
10725WAT     H132717   6.346   6.188   3.416
10725WAT     H232718   6.342   6.136   3.261
10726WAT      O32719   6.980   6.055   3.536
10726WAT     H132720   6.960   6.098   3.624
10726WAT     H232721   7.058   5.993   3.545
10727WAT      O32722   6.559   6.476   3.434
10727WAT     H132723   6.605   6.392   3.405
10727WAT     H232724   6.503   6.510   3.359
10728WAT      O32725   6.577   5.996   3.104
10728WAT     H132726   6.500   6.030   3.158
10728WAT     H232727   6.543   5.945   3.025
10729WAT      O32728   6.627   6.287   2.291
10729WAT     H132729   6.653   6.283   2.387
10729WAT     H232730   6.542   6.236   2.277
10730WAT      O32731   5.662   6.397   2.651
10730WAT     H132732   5.761   6.385   2.660
10730WAT     H232733   5.638   6.492   2.672
10731WAT      O32734   6.451   5.934   2.057
10731WAT     H132735   6.510   5.997   2.008
10731WAT     H232736   6.470   5.840   2.028
10732WAT      O32737   6.948   6.730   2.407
10732WAT     H132738   7.031   6.701   2.359
10732WAT     H232739   6.899   6.797   2.351
10733WAT      O32740   6.136   5.782   2.747
10733WAT     H132741   6.131   5.777   2.847
10733WAT     H232742   6.138   5.878   2.718
10734WAT      O32743   5.907   6.529   2.104
10734WAT     H132744   5.989   6.568   2.062
10734WAT     H232745   5.880   6.447   2.055
10735WAT      O32746   5.788   5.871   3.360
10735WAT     H132747   5.708   5.931   3.347
10735WAT     H232748   5.778   5.822   3.446
10736WAT      O32749   5.968   6.286   2.342
10736WAT     H132750   6.013   6.196   2.339
10736WAT     H232751   5.874   6.275   2.375
10737WAT      O32752   6.200   5.708   1.979
10737WAT     H132753   6.298   5.686   1.986
10737WAT     H232754   6.169   5.691   1.886
10738WAT      O32755   6.367   5.850   3.611
10738WAT     H132756   6.434   5.789   3.654
10738WAT     H232757   6.294   5.869   3.676
10739WAT      O32758   6.508   6.089   2.761
10739WAT     H132759   6.483   6.080   2.665
10739WAT     H232760   6.556   6.007   2.792
10740WAT      O32761   6.125   5.650   2.374
10740WAT     H132762   6.044   5.651   2.432
10740WAT     H232763   6.128   5.733   2.319
10741WAT      O32764   7.020   6.774   1.903
10741WAT     H132765   7.052   6.698   1.960
10741WAT     H232766   6.928   6.801   1.933
10742WAT      O32767   5.883   5.621   2.033
10742WAT     H132768   5.932   5.705   2.012
10742WAT     H232769   5.945   5.556   2.078
10743WAT      O32770   6.521   5.822   2.342
10743WAT     H132771   6.473   5.863   2.264
10743WAT     H232772   6.620   5.820   2.323
10744WAT      O32773   6.662   6.269   3.326
10744WAT     H132774   6.582   6.208   3.329
10744WAT     H232775   6.743   6.216   3.302
10745WAT      O32776   6.813   7.156   2.655
10745WAT     H132777   6.834   7.230   2.590
10745WAT     H232778   6.881   7.156   2.728
10746WAT      O32779   6.045   6.738   2.603
10746WAT     H132780   5.974   6.711   2.668
10746WAT     H232781   6.019   6.710   2.510
10747WAT      O32782   6.618   6.135   1.878
10747WAT     H132783   6.577   6.217   1.839
10747WAT     H232784   6.682   6.161   1.951
10748WAT      O32785   5.664   6.142   3.248
10748WAT     H132786   5.756   6.141   3.207
10748WAT     H232787   5.658   6.216   3.315
10749WAT      O32788   6.147   5.808   3.009
10749WAT     H132789   6.185   5.724   3.046
10749WAT     H232790   6.059   5.827   3.053
10750WAT      O32791   6.452   6.040   2.504
10750WAT     H132792   6.420   6.112   2.442
10750WAT     H232793   6.476   5.959   2.451
10751WAT      O32794   6.603   5.625   2.615
10751WAT     H132795   6.531   5.630   2.546
10751WAT     H232796   6.579   5.556   2.684
10752WAT      O32797   6.113   5.842   2.190
10752WAT     H132798   6.140   5.783   2.115
10752WAT     H232799   6.113   5.937   2.159
10753WAT      O32800   6.650   6.933   3.202
10753WAT     H132801   6.570   6.910   3.257
10753WAT     H232802   6.733   6.907   3.251
10754WAT      O32803   6.697   6.781   2.962
10754WAT     H132804   6.657   6.825   3.043
10754WAT     H232805   6.656   6.818   2.879
10755WAT      O32806   6.501   5.675   3.264
10755WAT     H132807   6.526   5.655   3.169
10755WAT     H232808   6.573   5.731   3.306
10756WAT      O32809   6.566   6.702   3.581
10756WAT     H132810   6.467   6.708   3.591
10756WAT     H232811   6.589   6.622   3.525
10757WAT      O32812   6.291   6.636   2.230
10757WAT     H132813   6.277   6.643   2.329
10757WAT     H232814   6.375   6.585   2.212
10758WAT      O32815   5.996   6.399   3.113
10758WAT     H132816   6.082   6.411   3.163
10758WAT     H232817   5.954   6.312   3.140
10759WAT      O32818   6.860   5.972   3.124
10759WAT     H132819   6.881   6.046   3.188
10759WAT     H232820   6.771   5.989   3.081
10760WAT      O32821   5.953   6.686   2.363
10760WAT     H132822   5.946   6.769   2.307
10760WAT     H232823   5.957   6.606   2.303
10761WAT      O32824   6.152   6.123   2.727
10761WAT     H132825   6.164   6.189   2.653
10761WAT     H232826   6.198   6.157   2.810
10762WAT      O32827   6.838   6.934   2.250
10762WAT     H132828   6.888   7.011   2.290
10762WAT     H232829   6.743   6.936   2.282
10763WAT      O32830   5.988   6.337   3.460
10763WAT     H132831   6.056   6.392   3.413
10763WAT     H232832   6.028   6.249   3.487
10764WAT      O32833   6.599   5.691   3.632
10764WAT     H132834   6.605   5.776   3.580
10764WAT     H232835   6.631   5.615   3.575
10765WAT      O32836   6.090   5.636   3.602
10765WAT     H132837   6.048   5.579   3.532
10765WAT     H232838   6.024   5.705   3.634
10766WAT      O32839   6.159   6.456   2.891
10766WAT     H132840   6.203   6.545   2.882
10766WAT     H232841   6.096   6.456   2.968
10767WAT      O32842   6.946   6.448   2.907
10767WAT     H132843   6.871   6.448   2.841
10767WAT     H232844   6.983   6.356   2.916
10768WAT      O32845   6.795   6.111   2.137
10768WAT     H132846   6.808   6.027   2.191
10768WAT     H232847   6.766   6.185   2.197
10769WAT      O32848   5.893   5.799   3.093
10769WAT     H132849   5.870   5.836   3.183
10769WAT     H232850   5.863   5.704   3.087
10770WAT      O32851   5.623   6.896   3.144
10770WAT     H132852   5.676   6.847   3.212
10770WAT     H232853   5.645   6.994   3.149
10771WAT      O32854   6.318   6.220   2.926
10771WAT     H132855   6.377   6.194   2.850
10771WAT     H232856   6.290   6.316   2.915
10772WAT      O32857   5.893   5.649   2.480
10772WAT     H132858   5.882   5.743   2.513
10772WAT     H232859   5.888   5.586   2.557
10773WAT      O32860   7.208   5.953   2.236
10773WAT     H132861   7.210   5.877   2.300
10773WAT     H232862   7.160   6.030   2.276
10774WAT      O32863   6.609   6.352   2.828
10774WAT     H132864   6.624   6.373   2.924
10774WAT     H232865   6.579   6.257   2.819
10775WAT      O32866   5.936   6.484   3.666
10775WAT     H132867   6.012   6.528   3.714
10775WAT     H232868   5.971   6.437   3.584
10776WAT      O32869   6.889   6.424   1.904
10776WAT     H132870   6.923   6.331   1.919
10776WAT     H232871   6.907   6.451   1.809
10777WAT      O32872   5.905   6.396   2.811
10777WAT     H132873   5.998   6.432   2.816
10777WAT     H232874   5.899   6.311   2.863
10778WAT      O32875   5.925   6.095   2.868
10778WAT     H132876   5.873   6.012   2.851
10778WAT     H232877   6.002   6.100   2.804
10779WAT      O32878   6.724   5.966   3.540
10779WAT     H132879   6.679   6.029   3.604
10779WAT     H232880   6.817   5.997   3.523
10780WAT      O32881   6.746   5.793   3.339
10780WAT     H132882   6.746   5.857   3.416
10780WAT     H232883   6.774   5.841   3.256
10781WAT      O32884   5.594   6.912   2.062
10781WAT     H132885   5.501   6.933   2.031
10781WAT     H232886   5.604   6.813   2.075
10782WAT      O32887   6.588   6.382   3.100
10782WAT     H132888   6.629   6.350   3.186
10782WAT     H232889   6.492   6.355   3.097
10783WAT      O32890   5.626   6.130   2.976
10783WAT     H132891   5.711   6.097   2.935
10783WAT     H232892   5.639   6.145   3.074
10784WAT      O32893   5.775   6.106   3.584
10784WAT     H132894   5.834   6.066   3.514
10784WAT     H232895   5.717   6.177   3.543
10785WAT      O32896   6.401   6.158   2.187
10785WAT     H132897   6.408   6.069   2.141
10785WAT     H232898   6.307   6.192   2.179
10786WAT      O32899   6.257   6.050   3.131
10786WAT     H132900   6.223   5.961   3.101
10786WAT     H232901   6.283   6.104   3.051
10787WAT      O32902   6.059   6.086   2.053
10787WAT     H132903   6.120   6.166   2.057
10787WAT     H232904   5.964   6.117   2.060
10788WAT      O32905   5.745   6.723   3.328
10788WAT     H132906   5.767   6.662   3.404
10788WAT     H232907   5.755   6.674   3.242
10789WAT      O32908   6.933   6.645   3.096
10789WAT     H132909   6.957   6.582   3.022
10789WAT     H232910   6.843   6.685   3.078
10790WAT      O32911   6.888   6.441   2.171
10790WAT     H132912   6.802   6.410   2.213
10790WAT     H232913   6.884   6.427   2.072
10791WAT      O32914   5.669   6.844   2.884
10791WAT     H132915   5.664   6.843   2.984
10791WAT     H232916   5.586   6.803   2.846
10792WAT      O32917   6.866   6.513   2.534
10792WAT     H132918   6.926   6.432   2.536
10792WAT     H232919   6.906   6.582   2.474
10793WAT      O32920   6.416   6.859   3.284
10793WAT     H132921   6.411   6.892   3.379
10793WAT     H232922   6.330   6.878   3.238
10794WAT      O32923   5.849   5.912   2.582
10794WAT     H132924   5.770   5.963   2.548
10794WAT     H232925   5.840   5.897   2.680
10795WAT      O32926   6.780   7.198   1.893
10795WAT     H132927   6.786   7.105   1.930
10795WAT     H232928   6.721   7.198   1.813
10796WAT      O32929   6.408   6.588   3.234
10796WAT     H132930   6.448   6.587   3.142
10796WAT     H232931   6.418   6.680   3.274
10797WAT      O32932   6.502   6.496   2.153
10797WAT     H132933   6.565   6.534   2.085
10797WAT     H232934   6.542   6.413   2.192
10798WAT      O32935   5.958   6.874   3.352
10798WAT     H132936   5.945   6.967   3.318
10798WAT     H232937   5.874   6.822   3.339
10799WAT      O32938   6.625   6.684   2.558
10799WAT     H132939   6.555   6.637   2.612
10799WAT     H232940   6.684   6.616   2.515
10800WAT      O32941   6.600   5.822   2.833
10800WAT     H132942   6.592   5.786   2.740
10800WAT     H232943   6.598   5.746   2.898
10801WAT      O32944   5.691   6.599   3.588
10801WAT     H132945   5.614   6.566   3.642
10801WAT     H232946   5.776   6.569   3.630
10802WAT      O32947   6.258   5.789   3.351
10802WAT     H132948   6.348   5.773   3.311
10802WAT     H232949   6.266   5.794   3.450
10803WAT      O32950   5.661   5.931   1.895
10803WAT     H132951   5.569   5.903   1.866
10803WAT     H232952   5.692   6.008   1.839
10804WAT      O32953   5.658   5.752   2.180
10804WAT     H132954   5.641   5.835   2.126
10804WAT     H232955   5.748   5.715   2.158
10805WAT      O32956   6.199   6.428   3.293
10805WAT     H132957   6.255   6.509   3.276
10805WAT     H232958   6.258   6.348   3.296
10806WAT      O32959   6.302   6.151   3.570
10806WAT     H132960   6.321   6.216   3.644
10806WAT     H232961   6.362   6.071   3.579
10807WAT      O32962   7.036   6.806   3.495
10807WAT     H132963   7.027   6.796   3.594
10807WAT     H232964   7.132   6.799   3.469
10808WAT      O32965   6.811   5.911   2.311
10808WAT     H132966   6.876   5.837   2.300
10808WAT     H232967   6.831   5.961   2.395
10809WAT      O32968   6.180   6.331   2.514
10809WAT     H132969   6.230   6.416   2.495
10809WAT     H232970   6.092   6.333   2.466
10810WAT      O32971   6.445   6.542   2.723
10810WAT     H132972   6.499   6.473   2.771
10810WAT     H232973   6.413   6.611   2.789
10811WAT      O32974   6.669   6.570   1.949
10811WAT     H132975   6.646   6.623   1.867
10811WAT     H232976   6.750   6.514   1.930
10812WAT      O32977   5.807   6.900   3.706
10812WAT     H132978   5.742   6.827   3.685
10812WAT     H232979   5.811   6.914   3.804
10813WAT      O32980   5.665   6.826   2.515
10813WAT     H132981   5.664   6.779   2.603
10813WAT     H232982   5.747   6.798   2.464
10814WAT      O32983   6.258   6.977   3.486
10814WAT     H132984   6.180   6.927   3.524
10814WAT     H232985   6.255   7.072   3.517
10815WAT      O32986   6.014   6.010   2.382
10815WAT     H132987   6.044   5.938   2.320
10815WAT     H232988   5.975   5.970   2.465
10816WAT      O32989   5.903   6.133   3.142
10816WAT     H132990   5.941   6.074   3.214
10816WAT     H232991   5.943   6.107   3.054
10817WAT      O32992   7.010   5.800   2.974
10817WAT     H132993   7.062   5.735   3.029
10817WAT     H232994   6.961   5.863   3.035
10818WAT      O32995   6.587   5.620   3.016
10818WAT     H132996   6.524   5.548   2.985
10818WAT     H232997   6.680   5.584   3.016
10819WAT      O32998   6.356   6.916   2.163
10819WAT     H132999   6.310   6.829   2.180
10819WAT     H233000   6.447   6.913   2.204
10820WAT      O33001   6.938   5.638   2.030
10820WAT     H133002   6.973   5.597   1.946
10820WAT     H233003   6.848   5.600   2.050
10821WAT      O33004   5.625   6.663   2.162
10821WAT     H133005   5.724   6.652   2.153
10821WAT     H233006   5.585   6.577   2.194
10822WAT      O33007   5.816   6.214   3.837
10822WAT     H133008   5.723   6.212   3.874
10822WAT     H233009   5.817   6.175   3.745
10823WAT      O33010   5.811   5.861   4.720
10823WAT     H133011   5.846   5.844   4.812
10823WAT     H233012   5.723   5.816   4.708
10824WAT      O33013   5.605   5.954   4.371
10824WAT     H133014   5.523   5.997   4.410
10824WAT     H233015   5.577   5.881   4.308
10825WAT      O33016   6.155   6.861   4.889
10825WAT     H133017   6.062   6.854   4.852
10825WAT     H233018   6.166   6.950   4.933
10826WAT      O33019   7.141   7.097   4.427
10826WAT     H133020   7.084   7.081   4.508
10826WAT     H233021   7.082   7.107   4.347
10827WAT      O33022   6.721   6.289   4.441
10827WAT     H133023   6.778   6.367   4.416
10827WAT     H233024   6.661   6.315   4.517
10828WAT      O33025   6.354   6.730   4.747
10828WAT     H133026   6.276   6.747   4.807
10828WAT     H233027   6.388   6.817   4.711
10829WAT      O33028   6.436   6.384   5.547
10829WAT     H133029   6.432   6.460   5.612
10829WAT     H233030   6.458   6.420   5.456
10830WAT      O33031   6.271   6.598   4.389
10830WAT     H133032   6.340   6.582   4.459
10830WAT     H233033   6.198   6.655   4.427
10831WAT      O33034   6.272   6.747   5.527
10831WAT     H133035   6.332   6.826   5.541
10831WAT     H233036   6.186   6.778   5.486
10832WAT      O33037   5.921   7.021   4.785
10832WAT     H133038   5.843   6.990   4.732
10832WAT     H233039   5.979   7.079   4.728
10833WAT      O33040   6.024   5.978   5.223
10833WAT     H133041   6.106   5.922   5.232
10833WAT     H233042   5.943   5.920   5.227
10834WAT      O33043   5.826   6.677   4.610
10834WAT     H133044   5.840   6.593   4.662
10834WAT     H233045   5.771   6.741   4.665
10835WAT      O33046   6.192   6.550   3.847
10835WAT     H133047   6.199   6.634   3.793
10835WAT     H233048   6.238   6.563   3.935
10836WAT      O33049   5.708   6.229   4.287
10836WAT     H133050   5.663   6.141   4.304
10836WAT     H233051   5.707   6.283   4.371
10837WAT      O33052   5.699   6.323   5.321
10837WAT     H133053   5.787   6.310   5.366
10837WAT     H233054   5.686   6.420   5.299
10838WAT      O33055   6.879   6.814   5.147
10838WAT     H133056   6.916   6.741   5.089
10838WAT     H233057   6.931   6.819   5.232
10839WAT      O33058   6.395   5.590   4.226
10839WAT     H133059   6.435   5.681   4.217
10839WAT     H233060   6.295   5.598   4.232
10840WAT      O33061   5.783   6.562   4.988
10840WAT     H133062   5.872   6.517   4.974
10840WAT     H233063   5.710   6.497   4.969
10841WAT      O33064   5.903   5.837   5.525
10841WAT     H133065   5.974   5.908   5.531
10841WAT     H233066   5.815   5.876   5.553
10842WAT      O33067   6.184   6.315   3.994
10842WAT     H133068   6.208   6.384   3.926
10842WAT     H233069   6.106   6.348   4.048
10843WAT      O33070   6.867   5.931   4.668
10843WAT     H133071   6.781   5.881   4.655
10843WAT     H233072   6.929   5.877   4.724
10844WAT      O33073   6.393   6.191   5.189
10844WAT     H133074   6.346   6.188   5.278
10844WAT     H233075   6.342   6.136   5.123
10845WAT      O33076   6.980   6.055   5.398
10845WAT     H133077   6.960   6.098   5.486
10845WAT     H233078   7.058   5.993   5.407
10846WAT      O33079   6.559   6.476   5.296
10846WAT     H133080   6.605   6.392   5.267
10846WAT     H233081   6.503   6.510   5.221
10847WAT      O33082   6.577   5.996   4.966
10847WAT     H133083   6.500   6.030   5.020
10847WAT     H233084   6.543   5.945   4.887
10848WAT      O33085   6.627   6.287   4.153
10848WAT     H133086   6.653   6.283   4.249
10848WAT     H233087   6.542   6.236   4.139
10849WAT      O33088   5.662   6.397   4.513
10849WAT     H133089   5.761   6.385   4.522
10849WAT     H233090   5.638   6.492   4.534
10850WAT      O33091   6.451   5.934   3.919
10850WAT     H133092   6.510   5.997   3.870
10850WAT     H233093   6.470   5.840   3.890
10851WAT      O33094   6.948   6.730   4.269
10851WAT     H133095   7.031   6.701   4.221
10851WAT     H233096   6.899   6.797   4.213
10852WAT      O33097   6.136   5.782   4.609
10852WAT     H133098   6.131   5.777   4.709
10852WAT     H233099   6.138   5.878   4.580
10853WAT      O33100   5.907   6.529   3.966
10853WAT     H133101   5.989   6.568   3.924
10853WAT     H233102   5.880   6.447   3.917
10854WAT      O33103   5.788   5.871   5.222
10854WAT     H133104   5.708   5.931   5.209
10854WAT     H233105   5.778   5.822   5.308
10855WAT      O33106   5.968   6.286   4.204
10855WAT     H133107   6.013   6.196   4.201
10855WAT     H233108   5.874   6.275   4.237
10856WAT      O33109   6.200   5.708   3.841
10856WAT     H133110   6.298   5.686   3.848
10856WAT     H233111   6.169   5.691   3.748
10857WAT      O33112   6.367   5.850   5.473
10857WAT     H133113   6.434   5.789   5.516
10857WAT     H233114   6.294   5.869   5.538
10858WAT      O33115   6.508   6.089   4.623
10858WAT     H133116   6.483   6.080   4.527
10858WAT     H233117   6.556   6.007   4.654
10859WAT      O33118   6.125   5.650   4.236
10859WAT     H133119   6.044   5.651   4.294
10859WAT     H233120   6.128   5.733   4.181
10860WAT      O33121   7.020   6.774   3.765
10860WAT     H133122   7.052   6.698   3.822
10860WAT     H233123   6.928   6.801   3.795
10861WAT      O33124   5.883   5.621   3.895
10861WAT     H133125   5.932   5.705   3.874
10861WAT     H233126   5.945   5.556   3.940
10862WAT      O33127   6.521   5.822   4.204
10862WAT     H133128   6.473   5.863   4.126
10862WAT     H233129   6.620   5.820   4.185
10863WAT      O33130   6.662   6.269   5.188
10863WAT     H133131   6.582   6.208   5.191
10863WAT     H233132   6.743   6.216   5.164
10864WAT      O33133   6.813   7.156   4.517
10864WAT     H133134   6.834   7.230   4.452
10864WAT     H233135   6.881   7.156   4.590
10865WAT      O33136   6.045   6.738   4.465
10865WAT     H133137   5.974   6.711   4.530
10865WAT     H233138   6.019   6.710   4.372
10866WAT      O33139   6.618   6.135   3.740
10866WAT     H133140   6.577   6.217   3.701
10866WAT     H233141   6.682   6.161   3.813
10867WAT      O33142   5.664   6.142   5.110
10867WAT     H133143   5.756   6.141   5.069
10867WAT     H233144   5.658   6.216   5.177
10868WAT      O33145   6.147   5.808   4.871
10868WAT     H133146   6.185   5.724   4.908
10868WAT     H233147   6.059   5.827   4.915
10869WAT      O33148   6.452   6.040   4.366
10869WAT     H133149   6.420   6.112   4.304
10869WAT     H233150   6.476   5.959   4.313
10870WAT      O33151   6.603   5.625   4.477
10870WAT     H133152   6.531   5.630   4.408
10870WAT     H233153   6.579   5.556   4.546
10871WAT      O33154   6.113   5.842   4.052
10871WAT     H133155   6.140   5.783   3.977
10871WAT     H233156   6.113   5.937   4.021
10872WAT      O33157   6.650   6.933   5.064
10872WAT     H133158   6.570   6.910   5.119
10872WAT     H233159   6.733   6.907   5.113
10873WAT      O33160   6.697   6.781   4.824
10873WAT     H133161   6.657   6.825   4.905
10873WAT     H233162   6.656   6.818   4.741
10874WAT      O33163   6.501   5.675   5.126
10874WAT     H133164   6.526   5.655   5.031
10874WAT     H233165   6.573   5.731   5.168
10875WAT      O33166   6.566   6.702   5.443
10875WAT     H133167   6.467   6.708   5.453
10875WAT     H233168   6.589   6.622   5.387
10876WAT      O33169   6.291   6.636   4.092
10876WAT     H133170   6.277   6.643   4.191
10876WAT     H233171   6.375   6.585   4.074
10877WAT      O33172   5.996   6.399   4.975
10877WAT     H133173   6.082   6.411   5.025
10877WAT     H233174   5.954   6.312   5.002
10878WAT      O33175   6.860   5.972   4.986
10878WAT     H133176   6.881   6.046   5.050
10878WAT     H233177   6.771   5.989   4.943
10879WAT      O33178   5.953   6.686   4.225
10879WAT     H133179   5.946   6.769   4.169
10879WAT     H233180   5.957   6.606   4.165
10880WAT      O33181   6.152   6.123   4.589
10880WAT     H133182   6.164   6.189   4.515
10880WAT     H233183   6.198   6.157   4.672
10881WAT      O33184   6.838   6.934   4.112
10881WAT     H133185   6.888   7.011   4.152
10881WAT     H233186   6.743   6.936   4.144
10882WAT      O33187   5.988   6.337   5.322
10882WAT     H133188   6.056   6.392   5.275
10882WAT     H233189   6.028   6.249   5.349
10883WAT      O33190   6.599   5.691   5.494
10883WAT     H133191   6.605   5.776   5.442
10883WAT     H233192   6.631   5.615   5.437
10884WAT      O33193   6.090   5.636   5.464
10884WAT     H133194   6.048   5.579   5.394
10884WAT     H233195   6.024   5.705   5.496
10885WAT      O33196   6.159   6.456   4.753
10885WAT     H133197   6.203   6.545   4.744
10885WAT     H233198   6.096   6.456   4.830
10886WAT      O33199   6.946   6.448   4.769
10886WAT     H133200   6.871   6.448   4.703
10886WAT     H233201   6.983   6.356   4.778
10887WAT      O33202   6.795   6.111   3.999
10887WAT     H133203   6.808   6.027   4.053
10887WAT     H233204   6.766   6.185   4.059
10888WAT      O33205   5.893   5.799   4.955
10888WAT     H133206   5.870   5.836   5.045
10888WAT     H233207   5.863   5.704   4.949
10889WAT      O33208   5.623   6.896   5.006
10889WAT     H133209   5.676   6.847   5.074
10889WAT     H233210   5.645   6.994   5.011
10890WAT      O33211   6.318   6.220   4.788
10890WAT     H133212   6.377   6.194   4.712
10890WAT     H233213   6.290   6.316   4.777
10891WAT      O33214   5.893   5.649   4.342
10891WAT     H133215   5.882   5.743   4.375
10891WAT     H233216   5.888   5.586   4.419
10892WAT      O33217   7.208   5.953   4.098
10892WAT     H133218   7.210   5.877   4.162
10892WAT     H233219   7.160   6.030   4.138
10893WAT      O33220   6.609   6.352   4.690
10893WAT     H133221   6.624   6.373   4.786
10893WAT     H233222   6.579   6.257   4.681
10894WAT      O33223   5.936   6.484   5.528
10894WAT     H133224   6.012   6.528   5.576
10894WAT     H233225   5.971   6.437   5.446
10895WAT      O33226   6.889   6.424   3.766
10895WAT     H133227   6.923   6.331   3.781
10895WAT     H233228   6.907   6.451   3.671
10896WAT      O33229   5.905   6.396   4.673
10896WAT     H133230   5.998   6.432   4.678
10896WAT     H233231   5.899   6.311   4.725
10897WAT      O33232   5.925   6.095   4.730
10897WAT     H133233   5.873   6.012   4.713
10897WAT     H233234   6.002   6.100   4.666
10898WAT      O33235   6.724   5.966   5.402
10898WAT     H133236   6.679   6.029   5.466
10898WAT     H233237   6.817   5.997   5.385
10899WAT      O33238   6.746   5.793   5.201
10899WAT     H133239   6.746   5.857   5.278
10899WAT     H233240   6.774   5.841   5.118
10900WAT      O33241   5.594   6.912   3.924
10900WAT     H133242   5.501   6.933   3.893
10900WAT     H233243   5.604   6.813   3.937
10901WAT      O33244   6.588   6.382   4.962
10901WAT     H133245   6.629   6.350   5.048
10901WAT     H233246   6.492   6.355   4.959
10902WAT      O33247   5.626   6.130   4.838
10902WAT     H133248   5.711   6.097   4.797
10902WAT     H233249   5.639   6.145   4.936
10903WAT      O33250   5.775   6.106   5.446
10903WAT     H133251   5.834   6.066   5.376
10903WAT     H233252   5.717   6.177   5.405
10904WAT      O33253   6.401   6.158   4.049
10904WAT     H133254   6.408   6.069   4.003
10904WAT     H233255   6.307   6.192   4.041
10905WAT      O33256   6.257   6.050   4.993
10905WAT     H133257   6.223   5.961   4.963
10905WAT     H233258   6.283   6.104   4.913
10906WAT      O33259   6.059   6.086   3.915
10906WAT     H133260   6.120   6.166   3.919
10906WAT     H233261   5.964   6.117   3.922
10907WAT      O33262   5.745   6.723   5.190
10907WAT     H133263   5.767   6.662   5.266
10907WAT     H233264   5.755   6.674   5.104
10908WAT      O33265   6.933   6.645   4.958
10908WAT     H133266   6.957   6.582   4.884
10908WAT     H233267   6.843   6.685   4.940
10909WAT      O33268   6.888   6.441   4.033
10909WAT     H133269   6.802   6.410   4.075
10909WAT     H233270   6.884   6.427   3.934
10910WAT      O33271   5.669   6.844   4.746
10910WAT     H133272   5.664   6.843   4.846
10910WAT     H233273   5.586   6.803   4.708
10911WAT      O33274   6.866   6.513   4.396
10911WAT     H133275   6.926   6.432   4.398
10911WAT     H233276   6.906   6.582   4.336
10912WAT      O33277   6.416   6.859   5.146
10912WAT     H133278   6.411   6.892   5.241
10912WAT     H233279   6.330   6.878   5.100
10913WAT      O33280   5.849   5.912   4.444
10913WAT     H133281   5.770   5.963   4.410
10913WAT     H233282   5.840   5.897   4.542
10914WAT      O33283   6.780   7.198   3.755
10914WAT     H133284   6.786   7.105   3.792
10914WAT     H233285   6.721   7.198   3.675
10915WAT      O33286   6.408   6.588   5.096
10915WAT     H133287   6.448   6.587   5.004
10915WAT     H233288   6.418   6.680   5.136
10916WAT      O33289   6.502   6.496   4.015
10916WAT     H133290   6.565   6.534   3.947
10916WAT     H233291   6.542   6.413   4.054
10917WAT      O33292   5.958   6.874   5.214
10917WAT     H133293   5.945   6.967   5.180
10917WAT     H233294   5.874   6.822   5.201
10918WAT      O33295   6.625   6.684   4.420
10918WAT     H133296   6.555   6.637   4.474
10918WAT     H233297   6.684   6.616   4.377
10919WAT      O33298   6.600   5.822   4.695
10919WAT     H133299   6.592   5.786   4.602
10919WAT     H233300   6.598   5.746   4.760
10920WAT      O33301   5.691   6.599   5.450
10920WAT     H133302   5.614   6.566   5.504
10920WAT     H233303   5.776   6.569   5.492
10921WAT      O33304   6.258   5.789   5.213
10921WAT     H133305   6.348   5.773   5.173
10921WAT     H233306   6.266   5.794   5.312
10922WAT      O33307   5.661   5.931   3.757
10922WAT     H133308   5.569   5.903   3.728
10922WAT     H233309   5.692   6.008   3.701
10923WAT      O33310   5.658   5.752   4.042
10923WAT     H133311   5.641   5.835   3.988
10923WAT     H233312   5.748   5.715   4.020
10924WAT      O33313   6.199   6.428   5.155
10924WAT     H133314   6.255   6.509   5.138
10924WAT     H233315   6.258   6.348   5.158
10925WAT      O33316   6.302   6.151   5.432
10925WAT     H133317   6.321   6.216   5.506
10925WAT     H233318   6.362   6.071   5.441
10926WAT      O33319   7.036   6.806   5.357
10926WAT     H133320   7.027   6.796   5.456
10926WAT     H233321   7.132   6.799   5.331
10927WAT      O33322   6.811   5.911   4.173
10927WAT     H133323   6.876   5.837   4.162
10927WAT     H233324   6.831   5.961   4.257
10928WAT      O33325   6.180   6.331   4.376
10928WAT     H133326   6.230   6.416   4.357
10928WAT     H233327   6.092   6.333   4.328
10929WAT      O33328   6.445   6.542   4.585
10929WAT     H133329   6.499   6.473   4.633
10929WAT     H233330   6.413   6.611   4.651
10930WAT      O33331   6.669   6.570   3.811
10930WAT     H133332   6.646   6.623   3.729
10930WAT     H233333   6.750   6.514   3.792
10931WAT      O33334   5.807   6.900   5.568
10931WAT     H133335   5.742   6.827   5.547
10931WAT     H233336   5.811   6.914   5.666
10932WAT      O33337   5.665   6.826   4.377
10932WAT     H133338   5.664   6.779   4.465
10932WAT     H233339   5.747   6.798   4.326
10933WAT      O33340   6.258   6.977   5.348
10933WAT     H133341   6.180   6.927   5.386
10933WAT     H233342   6.255   7.072   5.379
10934WAT      O33343   6.014   6.010   4.244
10934WAT     H133344   6.044   5.938   4.182
10934WAT     H233345   5.975   5.970   4.327
10935WAT      O33346   5.903   6.133   5.004
10935WAT     H133347   5.941   6.074   5.076
10935WAT     H233348   5.943   6.107   4.916
10936WAT      O33349   7.010   5.800   4.836
10936WAT     H133350   7.062   5.735   4.891
10936WAT     H233351   6.961   5.863   4.897
10937WAT      O33352   6.587   5.620   4.878
10937WAT     H133353   6.524   5.548   4.847
10937WAT     H233354   6.680   5.584   4.878
10938WAT      O33355   6.356   6.916   4.025
10938WAT     H133356   6.310   6.829   4.042
10938WAT     H233357   6.447   6.913   4.066
10939WAT      O33358   6.938   5.638   3.892
10939WAT     H133359   6.973   5.597   3.808
10939WAT     H233360   6.848   5.600   3.912
10940WAT      O33361   5.625   6.663   4.024
10940WAT     H133362   5.724   6.652   4.015
10940WAT     H233363   5.585   6.577   4.056
10941WAT      O33364   5.816   6.214   5.699
10941WAT     H133365   5.723   6.212   5.736
10941WAT     H233366   5.817   6.175   5.607
10942WAT      O33367   5.811   5.861   6.582
10942WAT     H133368   5.846   5.844   6.674
10942WAT     H233369   5.723   5.816   6.570
10943WAT      O33370   5.605   5.954   6.233
10943WAT     H133371   5.523   5.997   6.272
10943WAT     H233372   5.577   5.881   6.170
10944WAT      O33373   6.155   6.861   6.751
10944WAT     H133374   6.062   6.854   6.714
10944WAT     H233375   6.166   6.950   6.795
10945WAT      O33376   7.141   7.097   6.289
10945WAT     H133377   7.084   7.081   6.370
10945WAT     H233378   7.082   7.107   6.209
10946WAT      O33379   6.721   6.289   6.303
10946WAT     H133380   6.778   6.367   6.278
10946WAT     H233381   6.661   6.315   6.379
10947WAT      O33382   6.354   6.730   6.609
10947WAT     H133383   6.276   6.747   6.669
10947WAT     H233384   6.388   6.817   6.573
10948WAT      O33385   6.271   6.598   6.251
10948WAT     H133386   6.340   6.582   6.321
10948WAT     H233387   6.198   6.655   6.289
10949WAT      O33388   5.921   7.021   6.647
10949WAT     H133389   5.843   6.990   6.594
10949WAT     H233390   5.979   7.079   6.590
10950WAT      O33391   5.826   6.677   6.472
10950WAT     H133392   5.840   6.593   6.524
10950WAT     H233393   5.771   6.741   6.527
10951WAT      O33394   6.192   6.550   5.709
10951WAT     H133395   6.199   6.634   5.655
10951WAT     H233396   6.238   6.563   5.797
10952WAT      O33397   7.180   5.700   7.066
10952WAT     H133398   7.162   5.767   6.994
10952WAT     H233399   7.177   5.746   7.155
10953WAT      O33400   5.708   6.229   6.149
10953WAT     H133401   5.663   6.141   6.166
10953WAT     H233402   5.707   6.283   6.233
10954WAT      O33403   6.879   6.814   7.009
10954WAT     H133404   6.916   6.741   6.951
10954WAT     H233405   6.931   6.819   7.094
10955WAT      O33406   6.395   5.590   6.088
10955WAT     H133407   6.435   5.681   6.079
10955WAT     H233408   6.295   5.598   6.094
10956WAT      O33409   5.783   6.562   6.850
10956WAT     H133410   5.872   6.517   6.836
10956WAT     H233411   5.710   6.497   6.831
10957WAT      O33412   6.184   6.315   5.856
10957WAT     H133413   6.208   6.384   5.788
10957WAT     H233414   6.106   6.348   5.910
10958WAT      O33415   6.867   5.931   6.530
10958WAT     H133416   6.781   5.881   6.517
10958WAT     H233417   6.929   5.877   6.586
10959WAT      O33418   6.393   6.191   7.051
10959WAT     H133419   6.346   6.188   7.140
10959WAT     H233420   6.342   6.136   6.985
10960WAT      O33421   6.577   5.996   6.828
10960WAT     H133422   6.500   6.030   6.882
10960WAT     H233423   6.543   5.945   6.749
10961WAT      O33424   6.627   6.287   6.015
10961WAT     H133425   6.653   6.283   6.111
10961WAT     H233426   6.542   6.236   6.001
10962WAT      O33427   5.662   6.397   6.375
10962WAT     H133428   5.761   6.385   6.384
10962WAT     H233429   5.638   6.492   6.396
10963WAT      O33430   6.451   5.934   5.781
10963WAT     H133431   6.510   5.997   5.732
10963WAT     H233432   6.470   5.840   5.752
10964WAT      O33433   6.948   6.730   6.131
10964WAT     H133434   7.031   6.701   6.083
10964WAT     H233435   6.899   6.797   6.075
10965WAT      O33436   6.136   5.782   6.471
10965WAT     H133437   6.131   5.777   6.571
10965WAT     H233438   6.138   5.878   6.442
10966WAT      O33439   5.907   6.529   5.828
10966WAT     H133440   5.989   6.568   5.786
10966WAT     H233441   5.880   6.447   5.779
10967WAT      O33442   5.968   6.286   6.066
10967WAT     H133443   6.013   6.196   6.063
10967WAT     H233444   5.874   6.275   6.099
10968WAT      O33445   6.200   5.708   5.703
10968WAT     H133446   6.298   5.686   5.710
10968WAT     H233447   6.169   5.691   5.610
10969WAT      O33448   6.508   6.089   6.485
10969WAT     H133449   6.483   6.080   6.389
10969WAT     H233450   6.556   6.007   6.516
10970WAT      O33451   6.125   5.650   6.098
10970WAT     H133452   6.044   5.651   6.156
10970WAT     H233453   6.128   5.733   6.043
10971WAT      O33454   7.020   6.774   5.627
10971WAT     H133455   7.052   6.698   5.684
10971WAT     H233456   6.928   6.801   5.657
10972WAT      O33457   5.883   5.621   5.757
10972WAT     H133458   5.932   5.705   5.736
10972WAT     H233459   5.945   5.556   5.802
10973WAT      O33460   6.521   5.822   6.066
10973WAT     H133461   6.473   5.863   5.988
10973WAT     H233462   6.620   5.820   6.047
10974WAT      O33463   6.813   7.156   6.379
10974WAT     H133464   6.834   7.230   6.314
10974WAT     H233465   6.881   7.156   6.452
10975WAT      O33466   6.045   6.738   6.327
10975WAT     H133467   5.974   6.711   6.392
10975WAT     H233468   6.019   6.710   6.234
10976WAT      O33469   6.618   6.135   5.602
10976WAT     H133470   6.577   6.217   5.563
10976WAT     H233471   6.682   6.161   5.675
10977WAT      O33472   6.147   5.808   6.733
10977WAT     H133473   6.185   5.724   6.770
10977WAT     H233474   6.059   5.827   6.777
10978WAT      O33475   6.452   6.040   6.228
10978WAT     H133476   6.420   6.112   6.166
10978WAT     H233477   6.476   5.959   6.175
10979WAT      O33478   6.603   5.625   6.339
10979WAT     H133479   6.531   5.630   6.270
10979WAT     H233480   6.579   5.556   6.408
10980WAT      O33481   6.113   5.842   5.914
10980WAT     H133482   6.140   5.783   5.839
10980WAT     H233483   6.113   5.937   5.883
10981WAT      O33484   6.650   6.933   6.926
10981WAT     H133485   6.570   6.910   6.981
10981WAT     H233486   6.733   6.907   6.975
10982WAT      O33487   6.697   6.781   6.686
10982WAT     H133488   6.657   6.825   6.767
10982WAT     H233489   6.656   6.818   6.603
10983WAT      O33490   6.291   6.636   5.954
10983WAT     H133491   6.277   6.643   6.053
10983WAT     H233492   6.375   6.585   5.936
10984WAT      O33493   5.996   6.399   6.837
10984WAT     H133494   6.082   6.411   6.887
10984WAT     H233495   5.954   6.312   6.864
10985WAT      O33496   6.860   5.972   6.848
10985WAT     H133497   6.881   6.046   6.912
10985WAT     H233498   6.771   5.989   6.805
10986WAT      O33499   5.953   6.686   6.087
10986WAT     H133500   5.946   6.769   6.031
10986WAT     H233501   5.957   6.606   6.027
10987WAT      O33502   6.152   6.123   6.451
10987WAT     H133503   6.164   6.189   6.377
10987WAT     H233504   6.198   6.157   6.534
10988WAT      O33505   6.838   6.934   5.974
10988WAT     H133506   6.888   7.011   6.014
10988WAT     H233507   6.743   6.936   6.006
10989WAT      O33508   6.159   6.456   6.615
10989WAT     H133509   6.203   6.545   6.606
10989WAT     H233510   6.096   6.456   6.692
10990WAT      O33511   6.946   6.448   6.631
10990WAT     H133512   6.871   6.448   6.565
10990WAT     H233513   6.983   6.356   6.640
10991WAT      O33514   6.795   6.111   5.861
10991WAT     H133515   6.808   6.027   5.915
10991WAT     H233516   6.766   6.185   5.921
10992WAT      O33517   5.893   5.799   6.817
10992WAT     H133518   5.870   5.836   6.907
10992WAT     H233519   5.863   5.704   6.811
10993WAT      O33520   5.623   6.896   6.868
10993WAT     H133521   5.676   6.847   6.936
10993WAT     H233522   5.645   6.994   6.873
10994WAT      O33523   6.318   6.220   6.650
10994WAT     H133524   6.377   6.194   6.574
10994WAT     H233525   6.290   6.316   6.639
10995WAT      O33526   5.893   5.649   6.204
10995WAT     H133527   5.882   5.743   6.237
10995WAT     H233528   5.888   5.586   6.281
10996WAT      O33529   7.208   5.953   5.960
10996WAT     H133530   7.210   5.877   6.024
10996WAT     H233531   7.160   6.030   6.000
10997WAT      O33532   6.609   6.352   6.552
10997WAT     H133533   6.624   6.373   6.648
10997WAT     H233534   6.579   6.257   6.543
10998WAT      O33535   6.889   6.424   5.628
10998WAT     H133536   6.923   6.331   5.643
10998WAT     H233537   6.907   6.451   5.533
10999WAT      O33538   5.905   6.396   6.535
10999WAT     H133539   5.998   6.432   6.540
10999WAT     H233540   5.899   6.311   6.587
11000WAT      O33541   5.925   6.095   6.592
11000WAT     H133542   5.873   6.012   6.575
11000WAT     H233543   6.002   6.100   6.528
11001WAT      O33544   6.746   5.793   7.063
11001WAT     H133545   6.746   5.857   7.140
11001WAT     H233546   6.774   5.841   6.980
11002WAT      O33547   5.594   6.912   5.786
11002WAT     H133548   5.501   6.933   5.755
11002WAT     H233549   5.604   6.813   5.799
11003WAT      O33550   6.588   6.382   6.824
11003WAT     H133551   6.629   6.350   6.910
11003WAT     H233552   6.492   6.355   6.821
11004WAT      O33553   5.626   6.130   6.700
11004WAT     H133554   5.711   6.097   6.659
11004WAT     H233555   5.639   6.145   6.798
11005WAT      O33556   6.401   6.158   5.911
11005WAT     H133557   6.408   6.069   5.865
11005WAT     H233558   6.307   6.192   5.903
11006WAT      O33559   6.257   6.050   6.855
11006WAT     H133560   6.223   5.961   6.825
11006WAT     H233561   6.283   6.104   6.775
11007WAT      O33562   6.059   6.086   5.777
11007WAT     H133563   6.120   6.166   5.781
11007WAT     H233564   5.964   6.117   5.784
11008WAT      O33565   5.745   6.723   7.052
11008WAT     H133566   5.767   6.662   7.128
11008WAT     H233567   5.755   6.674   6.966
11009WAT      O33568   6.933   6.645   6.820
11009WAT     H133569   6.957   6.582   6.746
11009WAT     H233570   6.843   6.685   6.802
11010WAT      O33571   6.888   6.441   5.895
11010WAT     H133572   6.802   6.410   5.937
11010WAT     H233573   6.884   6.427   5.796
11011WAT      O33574   5.669   6.844   6.608
11011WAT     H133575   5.664   6.843   6.708
11011WAT     H233576   5.586   6.803   6.570
11012WAT      O33577   6.866   6.513   6.258
11012WAT     H133578   6.926   6.432   6.260
11012WAT     H233579   6.906   6.582   6.198
11013WAT      O33580   6.416   6.859   7.008
11013WAT     H133581   6.411   6.892   7.103
11013WAT     H233582   6.330   6.878   6.962
11014WAT      O33583   5.849   5.912   6.306
11014WAT     H133584   5.770   5.963   6.272
11014WAT     H233585   5.840   5.897   6.404
11015WAT      O33586   6.780   7.198   5.617
11015WAT     H133587   6.786   7.105   5.654
11015WAT     H233588   6.721   7.198   5.537
11016WAT      O33589   6.408   6.588   6.958
11016WAT     H133590   6.448   6.587   6.866
11016WAT     H233591   6.418   6.680   6.998
11017WAT      O33592   6.502   6.496   5.877
11017WAT     H133593   6.565   6.534   5.809
11017WAT     H233594   6.542   6.413   5.916
11018WAT      O33595   5.958   6.874   7.076
11018WAT     H133596   5.945   6.967   7.042
11018WAT     H233597   5.874   6.822   7.063
11019WAT      O33598   6.625   6.684   6.282
11019WAT     H133599   6.555   6.637   6.336
11019WAT     H233600   6.684   6.616   6.239
11020WAT      O33601   6.600   5.822   6.557
11020WAT     H133602   6.592   5.786   6.464
11020WAT     H233603   6.598   5.746   6.622
11021WAT      O33604   6.258   5.789   7.075
11021WAT     H133605   6.348   5.773   7.035
11021WAT     H233606   6.266   5.794   7.174
11022WAT      O33607   5.661   5.931   5.619
11022WAT     H133608   5.569   5.903   5.590
11022WAT     H233609   5.692   6.008   5.563
11023WAT      O33610   5.658   5.752   5.904
11023WAT     H133611   5.641   5.835   5.850
11023WAT     H233612   5.748   5.715   5.882
11024WAT      O33613   6.811   5.911   6.035
11024WAT     H133614   6.876   5.837   6.024
11024WAT     H233615   6.831   5.961   6.119
11025WAT      O33616   6.180   6.331   6.238
11025WAT     H133617   6.230   6.416   6.219
11025WAT     H233618   6.092   6.333   6.190
11026WAT      O33619   6.445   6.542   6.447
11026WAT     H133620   6.499   6.473   6.495
11026WAT     H233621   6.413   6.611   6.513
11027WAT      O33622   6.669   6.570   5.673
11027WAT     H133623   6.646   6.623   5.591
11027WAT     H233624   6.750   6.514   5.654
11028WAT      O33625   5.665   6.826   6.239
11028WAT     H133626   5.664   6.779   6.327
11028WAT     H233627   5.747   6.798   6.188
11029WAT      O33628   6.014   6.010   6.106
11029WAT     H133629   6.044   5.938   6.044
11029WAT     H233630   5.975   5.970   6.189
11030WAT      O33631   5.903   6.133   6.866
11030WAT     H133632   5.941   6.074   6.938
11030WAT     H233633   5.943   6.107   6.778
11031WAT      O33634   7.010   5.800   6.698
11031WAT     H133635   7.062   5.735   6.753
11031WAT     H233636   6.961   5.863   6.759
11032WAT      O33637   6.587   5.620   6.740
11032WAT     H133638   6.524   5.548   6.709
11032WAT     H233639   6.680   5.584   6.740
11033WAT      O33640   6.356   6.916   5.887
11033WAT     H133641   6.310   6.829   5.904
11033WAT     H233642   6.447   6.913   5.928
11034WAT      O33643   6.938   5.638   5.754
11034WAT     H133644   6.973   5.597   5.670
11034WAT     H233645   6.848   5.600   5.774
11035WAT      O33646   5.625   6.663   5.886
11035WAT     H133647   5.724   6.652   5.877
11035WAT     H233648   5.585   6.577   5.918
   7.00000   7.00000   7.00000
